       N       E                     dE             d eps       ncg     rms          rms(c)
DAV:   1     0.291637771185E+04    0.29164E+04   -0.13206E+05  1168   0.960E+02
DAV:   2    -0.254821854516E+03   -0.31712E+04   -0.29765E+04  1640   0.245E+02
DAV:   3    -0.764258683830E+03   -0.50944E+03   -0.50614E+03  1368   0.997E+01
DAV:   4    -0.780701538247E+03   -0.16443E+02   -0.16380E+02  1416   0.217E+01
DAV:   5    -0.781168772730E+03   -0.46723E+00   -0.46660E+00  1528   0.320E+00
DAV:   6    -0.781182105997E+03   -0.13333E-01   -0.13319E-01  1480   0.524E-01
DAV:   7    -0.781182593659E+03   -0.48766E-03   -0.48747E-03  1576   0.970E-02
DAV:   8    -0.781182615123E+03   -0.21464E-04   -0.21454E-04  1352   0.189E-02    0.620E+01
DAV:   9    -0.523588816974E+03    0.25759E+03   -0.41744E+02  1256   0.295E+01    0.330E+01
DAV:  10    -0.605910996129E+03   -0.82322E+02   -0.68612E+01  1224   0.125E+01    0.204E+01
DAV:  11    -0.661221215988E+03   -0.55310E+02   -0.41761E+01  1240   0.965E+00    0.117E+01
DAV:  12    -0.703051031769E+03   -0.41830E+02   -0.20016E+01  1240   0.628E+00    0.743E+00
DAV:  13    -0.735257045024E+03   -0.32206E+02   -0.20306E+01  1264   0.576E+00    0.470E+00
DAV:  14    -0.755333145517E+03   -0.20076E+02   -0.13226E+01  1232   0.417E+00    0.268E+00
DAV:  15    -0.762744944283E+03   -0.74118E+01   -0.37304E+00  1208   0.214E+00    0.161E+00
DAV:  16    -0.767193775988E+03   -0.44488E+01   -0.14642E+00  1224   0.129E+00    0.624E-01
DAV:  17    -0.768323741990E+03   -0.11300E+01   -0.13944E-01  1344   0.467E-01    0.294E-01
DAV:  18    -0.768660989518E+03   -0.33725E+00   -0.43090E-02  1272   0.273E-01    0.176E-01
DAV:  19    -0.768695407826E+03   -0.34418E-01   -0.41687E-03  1328   0.118E-01    0.105E-01
DAV:  20    -0.768727363422E+03   -0.31956E-01   -0.67021E-03  1256   0.111E-01    0.773E-02
DAV:  21    -0.768733740855E+03   -0.63774E-02   -0.10039E-03  1288   0.567E-02    0.455E-02
DAV:  22    -0.768738411930E+03   -0.46711E-02   -0.73859E-04  1224   0.414E-02    0.292E-02
DAV:  23    -0.768741963294E+03   -0.35514E-02   -0.30986E-04  1144   0.283E-02    0.193E-02
DAV:  24    -0.768744350365E+03   -0.23871E-02   -0.22566E-04  1160   0.216E-02    0.156E-02
DAV:  25    -0.768745763774E+03   -0.14134E-02   -0.10234E-04  1144   0.172E-02    0.129E-02
DAV:  26    -0.768746348195E+03   -0.58442E-03   -0.35969E-05  1120   0.117E-02    0.120E-02
DAV:  27    -0.768746690096E+03   -0.34190E-03   -0.12410E-05   992   0.734E-03    0.112E-02
DAV:  28    -0.768746834323E+03   -0.14423E-03   -0.53305E-06   896   0.470E-03    0.109E-02
DAV:  29    -0.768746908586E+03   -0.74263E-04   -0.33922E-06   888   0.329E-03    0.109E-02
DAV:  30    -0.768746927579E+03   -0.18993E-04   -0.15381E-06   872   0.197E-03    0.108E-02
DAV:  31    -0.768746938027E+03   -0.10448E-04   -0.93536E-07   904   0.149E-03    0.108E-02
DAV:  32    -0.768746943279E+03   -0.52514E-05   -0.50975E-07   800   0.110E-03
    1 T=   300. E= -.76862061E+03 F= -.77207149E+03 E0= -.77207149E+03  EK= 0.34509E+01 SP= 0.00E+00 SK= 0.13E-09 mag=      4.000
       N       E                     dE             d eps       ncg     rms          rms(c)
DAV:   1    -0.768589434033E+03    0.15750E+00   -0.14085E+01  1136   0.740E+00    0.886E-01
DAV:   2    -0.768603872488E+03   -0.14438E-01   -0.27196E-01  1304   0.977E-01    0.587E-01
DAV:   3    -0.768600046026E+03    0.38265E-02   -0.21913E-02  1312   0.309E-01    0.272E-01
DAV:   4    -0.768599919607E+03    0.12642E-03   -0.44923E-03  1224   0.135E-01    0.114E-01
DAV:   5    -0.768599941771E+03   -0.22165E-04   -0.57046E-04  1224   0.550E-02    0.531E-02
DAV:   6    -0.768600088351E+03   -0.14658E-03   -0.12614E-04  1144   0.283E-02    0.307E-02
DAV:   7    -0.768600128519E+03   -0.40168E-04   -0.27188E-05  1168   0.127E-02    0.163E-02
DAV:   8    -0.768600149899E+03   -0.21380E-04   -0.58525E-06   856   0.554E-03    0.121E-02
DAV:   9    -0.768600172656E+03   -0.22757E-04   -0.32639E-06   864   0.390E-03    0.112E-02
DAV:  10    -0.768600193941E+03   -0.21285E-04   -0.16630E-06   848   0.259E-03    0.110E-02
DAV:  11    -0.768600214579E+03   -0.20639E-04   -0.12167E-06   880   0.198E-03    0.109E-02
DAV:  12    -0.768600229486E+03   -0.14906E-04   -0.83676E-07   864   0.153E-03    0.109E-02
DAV:  13    -0.768600238476E+03   -0.89905E-05   -0.53777E-07   872   0.110E-03
    2 T=   288. E= -.76861548E+03 F= -.77192572E+03 E0= -.77192572E+03  EK= 0.33102E+01 SP= -.95E-05 SK= 0.18E-04 mag=      4.000
       N       E                     dE             d eps       ncg     rms          rms(c)
DAV:   1    -0.768228244220E+03    0.37199E+00   -0.11108E-01  1248   0.140E+00    0.281E-01
DAV:   2    -0.768231951423E+03   -0.37072E-02   -0.41512E-02  1200   0.400E-01    0.123E-01
DAV:   3    -0.768231936790E+03    0.14633E-04   -0.62187E-04  1416   0.462E-02    0.837E-02
DAV:   4    -0.768231928795E+03    0.79946E-05   -0.12233E-04  1200   0.210E-02    0.414E-02
DAV:   5    -0.768231936655E+03   -0.78600E-05   -0.16847E-05  1024   0.886E-03    0.194E-02
DAV:   6    -0.768231940643E+03   -0.39875E-05   -0.45605E-06   840   0.451E-03
    3 T=   257. E= -.76860357E+03 F= -.77155818E+03 E0= -.77155818E+03  EK= 0.29576E+01 SP= -.35E-02 SK= 0.54E-03 mag=      4.000
       N       E                     dE             d eps       ncg     rms          rms(c)
DAV:   1    -0.767789683967E+03    0.44225E+00   -0.34424E-02  1256   0.118E+00    0.186E-01
DAV:   2    -0.767791822429E+03   -0.21385E-02   -0.21821E-02  1200   0.303E-01    0.879E-02
DAV:   3    -0.767791816311E+03    0.61187E-05   -0.26946E-04  1424   0.313E-02    0.602E-02
DAV:   4    -0.767791819547E+03   -0.32361E-05   -0.88307E-05  1216   0.173E-02    0.286E-02
DAV:   5    -0.767791822429E+03   -0.28824E-05   -0.87438E-06   928   0.656E-03    0.188E-02
DAV:   6    -0.767791824898E+03   -0.24685E-05   -0.41559E-06   840   0.402E-03
    4 T=   221. E= -.76859541E+03 F= -.77111865E+03 E0= -.77111865E+03  EK= 0.25382E+01 SP= -.19E-01 SK= 0.43E-02 mag=      4.000
       N       E                     dE             d eps       ncg     rms          rms(c)
DAV:   1    -0.767373186598E+03    0.41864E+00   -0.66069E-03  1208   0.984E-01    0.991E-02
DAV:   2    -0.767374279871E+03   -0.10933E-02   -0.11151E-02  1224   0.208E-01    0.600E-02
DAV:   3    -0.767374268623E+03    0.11248E-04   -0.11385E-04  1416   0.205E-02    0.423E-02
DAV:   4    -0.767374261922E+03    0.67010E-05   -0.34638E-05  1120   0.133E-02    0.215E-02
DAV:   5    -0.767374266358E+03   -0.44364E-05   -0.12150E-05   880   0.670E-03    0.142E-02
DAV:   6    -0.767374268396E+03   -0.20378E-05   -0.19250E-06   848   0.298E-03
    5 T=   187. E= -.76859300E+03 F= -.77070156E+03 E0= -.77070156E+03  EK= 0.21487E+01 SP= -.57E-01 SK= 0.17E-01 mag=      4.000
       N       E                     dE             d eps       ncg     rms          rms(c)
DAV:   1    -0.766995251785E+03    0.37901E+00   -0.35486E-02  1216   0.966E-01    0.119E-01
DAV:   2    -0.766996991571E+03   -0.17398E-02   -0.19853E-02  1224   0.276E-01    0.102E-01
DAV:   3    -0.766996419061E+03    0.57251E-03   -0.27815E-04  1280   0.317E-02    0.138E-01
DAV:   4    -0.766996797052E+03   -0.37799E-03   -0.15582E-04  1192   0.246E-02    0.845E-02
DAV:   5    -0.766996814420E+03   -0.17368E-04   -0.16900E-04  1264   0.256E-02    0.608E-02
DAV:   6    -0.766995702746E+03    0.11117E-02   -0.16309E-04  1272   0.228E-02    0.630E-02
DAV:   7    -0.766994894842E+03    0.80790E-03   -0.40764E-05  1232   0.115E-02    0.756E-02
DAV:   8    -0.766995583929E+03   -0.68909E-03   -0.21913E-05  1000   0.908E-03    0.627E-02
DAV:   9    -0.766997006418E+03   -0.14225E-02   -0.21259E-04  1208   0.258E-02    0.480E-02
DAV:  10    -0.766997163848E+03   -0.15743E-03   -0.14707E-04  1328   0.204E-02    0.959E-02
DAV:  11    -0.766996981184E+03    0.18266E-03   -0.70722E-05  1184   0.177E-02    0.552E-02
DAV:  12    -0.766996702123E+03    0.27906E-03   -0.16724E-04  1280   0.237E-02    0.569E-02
DAV:  13    -0.766996614347E+03    0.87776E-04   -0.13021E-04  1264   0.202E-02    0.911E-02
DAV:  14    -0.766996262124E+03    0.35222E-03   -0.12542E-04  1248   0.212E-02    0.143E-01
DAV:  15    -0.766996463524E+03   -0.20140E-03   -0.27345E-05  1136   0.101E-02    0.126E-01
DAV:  16    -0.766996733950E+03   -0.27043E-03   -0.54513E-05  1224   0.141E-02    0.943E-02
DAV:  17    -0.766997077876E+03   -0.34393E-03   -0.27400E-04  1224   0.316E-02    0.445E-02
DAV:  18    -0.766997191732E+03   -0.11386E-03   -0.14821E-04  1352   0.210E-02    0.688E-02
DAV:  19    -0.766997328796E+03   -0.13706E-03   -0.41539E-05  1248   0.126E-02    0.131E-01
DAV:  20    -0.766997112256E+03    0.21654E-03   -0.13300E-05   896   0.897E-03    0.114E-01
DAV:  21    -0.766996935693E+03    0.17656E-03   -0.27028E-05  1184   0.103E-02    0.697E-02
DAV:  22    -0.766996886684E+03    0.49009E-04   -0.74469E-05  1272   0.158E-02    0.464E-02
DAV:  23    -0.766996882216E+03    0.44679E-05   -0.65249E-05  1216   0.149E-02
    6 T=   158. E= -.76858899E+03 F= -.77032461E+03 E0= -.77032453E+03  EK= 0.18155E+01 SP= -.13E+00 SK= 0.48E-01 mag=      4.065
       N       E                     dE             d eps       ncg     rms          rms(c)
DAV:   1    -0.766694397979E+03    0.30249E+00   -0.10081E-01  1184   0.103E+00    0.190E-01
DAV:   2    -0.766695457895E+03   -0.10599E-02   -0.25010E-02  1200   0.303E-01    0.160E-01
DAV:   3    -0.766691379333E+03    0.40786E-02   -0.91151E-04  1320   0.520E-02    0.348E-01
DAV:   4    -0.766694547418E+03   -0.31681E-02   -0.16857E-03  1200   0.775E-02    0.133E-01
DAV:   5    -0.766696017844E+03   -0.14704E-02   -0.66429E-04  1320   0.461E-02    0.169E-01
DAV:   6    -0.766693212616E+03    0.28052E-02   -0.30174E-04  1304   0.295E-02    0.217E-01
DAV:   7    -0.766696366298E+03   -0.31537E-02   -0.32550E-04  1176   0.326E-02    0.153E-01
DAV:   8    -0.766695149460E+03    0.12168E-02   -0.12427E-03  1248   0.653E-02    0.139E-01
DAV:   9    -0.766696106024E+03   -0.95656E-03   -0.10174E-03  1384   0.566E-02    0.785E-01
DAV:  10    -0.766691679270E+03    0.44268E-02   -0.21534E-03  1240   0.101E-01    0.109E-01
DAV:  11    -0.766695916314E+03   -0.42370E-02   -0.70820E-04  1304   0.569E-02    0.138E-01
DAV:  12    -0.766696086102E+03   -0.16979E-03   -0.15525E-04  1368   0.240E-02    0.180E-01
DAV:  13    -0.766695786594E+03    0.29951E-03   -0.62403E-05  1280   0.153E-02    0.216E-01
DAV:  14    -0.766695118265E+03    0.66833E-03   -0.78514E-05  1256   0.177E-02    0.258E-01
DAV:  15    -0.766694835223E+03    0.28304E-03   -0.24105E-05  1168   0.860E-03    0.274E-01
DAV:  16    -0.766695640642E+03   -0.80542E-03   -0.88466E-05  1216   0.191E-02    0.230E-01
DAV:  17    -0.766696695607E+03   -0.10550E-02   -0.32448E-04  1304   0.341E-02    0.150E-01
DAV:  18    -0.766697315303E+03   -0.61970E-03   -0.32973E-04  1264   0.335E-02    0.950E-02
DAV:  19    -0.766697827869E+03   -0.51257E-03   -0.32673E-04  1264   0.339E-02    0.188E-01
DAV:  20    -0.766698927594E+03   -0.10997E-02   -0.25103E-04  1216   0.296E-02    0.533E-01
DAV:  21    -0.766706059976E+03   -0.71324E-02   -0.10361E-03  1272   0.616E-02    0.136E+00
DAV:  22    -0.766730118327E+03   -0.24058E-01   -0.87271E-03  1296   0.174E-01    0.102E+00
DAV:  23    -0.766722813482E+03    0.73048E-02   -0.12333E-03  1216   0.682E-02    0.110E+00
DAV:  24    -0.766721229596E+03    0.15839E-02   -0.38509E-05  1272   0.131E-02    0.111E+00
DAV:  25    -0.766721152015E+03    0.77581E-04   -0.11542E-06   960   0.236E-03    0.111E+00
DAV:  26    -0.766721064486E+03    0.87529E-04   -0.25760E-07   840   0.112E-03    0.111E+00
DAV:  27    -0.766721658339E+03   -0.59385E-03   -0.35506E-06   792   0.390E-03    0.110E+00
DAV:  28    -0.766720512413E+03    0.11459E-02   -0.86816E-06   816   0.625E-03    0.112E+00
DAV:  29    -0.766721537814E+03   -0.10254E-02   -0.96292E-06   856   0.635E-03    0.110E+00
DAV:  30    -0.766720603271E+03    0.93454E-03   -0.60780E-06   808   0.511E-03    0.111E+00
DAV:  31    -0.766728083394E+03   -0.74801E-02   -0.58732E-04  1224   0.475E-02    0.994E-01
DAV:  32    -0.766734200517E+03   -0.61171E-02   -0.70758E-04  1264   0.482E-02    0.889E-01
DAV:  33    -0.766735958152E+03   -0.17576E-02   -0.13295E-04  1328   0.194E-02    0.857E-01
DAV:  34    -0.766738785544E+03   -0.28274E-02   -0.11227E-04  1256   0.205E-02    0.801E-01
DAV:  35    -0.766746027279E+03   -0.72417E-02   -0.11452E-03  1240   0.649E-02    0.638E-01
DAV:  36    -0.766748551753E+03   -0.25245E-02   -0.45522E-04  1416   0.360E-02    0.571E-01
DAV:  37    -0.766748840569E+03   -0.28882E-03   -0.24303E-05  1032   0.883E-03    0.560E-01
DAV:  38    -0.766748013006E+03    0.82756E-03   -0.19963E-05   936   0.915E-03    0.583E-01
DAV:  39    -0.766748869381E+03   -0.85637E-03   -0.24800E-05   968   0.896E-03    0.557E-01
DAV:  40    -0.766749230176E+03   -0.36079E-03   -0.14471E-05   896   0.635E-03    0.547E-01
DAV:  41    -0.766750015504E+03   -0.78533E-03   -0.37418E-05  1056   0.103E-02    0.524E-01
DAV:  42    -0.766750759252E+03   -0.74375E-03   -0.63763E-05  1320   0.116E-02    0.501E-01
DAV:  43    -0.766752109450E+03   -0.13502E-02   -0.97236E-05  1224   0.186E-02    0.454E-01
DAV:  44    -0.766754521874E+03   -0.24124E-02   -0.40959E-04  1248   0.376E-02    0.361E-01
DAV:  45    -0.766757350089E+03   -0.28282E-02   -0.96673E-04  1264   0.584E-02    0.218E-01
DAV:  46    -0.766758402354E+03   -0.10523E-02   -0.50295E-04  1336   0.394E-02    0.133E-01
DAV:  47    -0.766758887992E+03   -0.48564E-03   -0.22746E-04  1240   0.285E-02    0.597E-02
DAV:  48    -0.766758982624E+03   -0.94632E-04   -0.76263E-05  1320   0.152E-02    0.289E-02
DAV:  49    -0.766758999348E+03   -0.16724E-04   -0.70204E-06   824   0.553E-03    0.167E-02
DAV:  50    -0.766759001935E+03   -0.25873E-05   -0.35530E-06   888   0.320E-03
    7 T=   137. E= -.76864506E+03 F= -.77008721E+03 E0= -.77008721E+03  EK= 0.15760E+01 SP= -.24E+00 SK= 0.10E+00 mag=      2.007
       N       E                     dE             d eps       ncg     rms          rms(c)
DAV:   1    -0.766448820971E+03    0.31018E+00   -0.12700E-01  1216   0.123E+00    0.203E+00
DAV:   2    -0.766376207208E+03    0.72614E-01   -0.52950E-01  1272   0.905E-01    0.174E+00
DAV:   3    -0.765748338640E+03    0.62787E+00   -0.23620E-01  1264   0.676E-01    0.967E-01
DAV:   4    -0.765275195983E+03    0.47314E+00   -0.30305E-02  1304   0.260E-01    0.737E-01
DAV:   5    -0.765438298258E+03   -0.16310E+00   -0.33897E-02  1216   0.247E-01    0.403E-01
DAV:   6    -0.766049426614E+03   -0.61113E+00   -0.39702E-02  1200   0.213E-01    0.223E-01
DAV:   7    -0.766484397282E+03   -0.43497E+00   -0.20717E-02  1280   0.147E-01    0.103E-01
DAV:   8    -0.766587865656E+03   -0.10347E+00   -0.42610E-03  1304   0.708E-02    0.447E-02
DAV:   9    -0.766595608992E+03   -0.77433E-02   -0.39674E-04  1248   0.236E-02    0.247E-02
DAV:  10    -0.766595788643E+03   -0.17965E-03   -0.67650E-05  1168   0.119E-02    0.150E-02
DAV:  11    -0.766596146631E+03   -0.35799E-03   -0.33714E-05  1024   0.737E-03    0.132E-02
DAV:  12    -0.766596301457E+03   -0.15483E-03   -0.28523E-05   936   0.578E-03    0.130E-02
DAV:  13    -0.766596421376E+03   -0.11992E-03   -0.41148E-05   992   0.585E-03    0.133E-02
DAV:  14    -0.766596464103E+03   -0.42727E-04   -0.13364E-05   976   0.397E-03    0.136E-02
DAV:  15    -0.766596442086E+03    0.22016E-04   -0.71759E-06   840   0.287E-03    0.140E-02
DAV:  16    -0.766596542420E+03   -0.10033E-03   -0.32784E-04  1184   0.135E-02    0.160E-02
DAV:  17    -0.766596500619E+03    0.41802E-04   -0.26097E-04  1112   0.131E-02    0.151E-02
DAV:  18    -0.766596445174E+03    0.55445E-04   -0.50286E-04  1328   0.171E-02    0.125E-02
DAV:  19    -0.766596475161E+03   -0.29987E-04   -0.15489E-04  1208   0.104E-02    0.118E-02
DAV:  20    -0.766596555308E+03   -0.80146E-04   -0.22794E-04  1128   0.124E-02    0.123E-02
DAV:  21    -0.766596557914E+03   -0.26066E-05   -0.29449E-05   920   0.493E-03
    8 T=   129. E= -.76864324E+03 F= -.76992535E+03 E0= -.76992535E+03  EK= 0.14859E+01 SP= -.40E+00 SK= 0.19E+00 mag=      2.000
       N       E                     dE             d eps       ncg     rms          rms(c)
DAV:   1    -0.766514617831E+03    0.81937E-01   -0.53270E-02  1264   0.101E+00    0.486E-01
DAV:   2    -0.766510767644E+03    0.38502E-02   -0.32439E-02  1224   0.350E-01    0.124E+00
DAV:   3    -0.766504431241E+03    0.63364E-02   -0.11933E-02  1192   0.217E-01    0.454E-01
DAV:   4    -0.766498263141E+03    0.61681E-02   -0.43593E-03  1328   0.123E-01    0.599E-01
DAV:   5    -0.766493149484E+03    0.51137E-02   -0.46545E-04  1384   0.384E-02    0.649E-01
DAV:   6    -0.766507577757E+03   -0.14428E-01   -0.10708E-03  1232   0.606E-02    0.523E-01
DAV:   7    -0.766517464669E+03   -0.98869E-02   -0.17399E-03  1256   0.724E-02    0.371E-01
DAV:   8    -0.766517768605E+03   -0.30394E-03   -0.21537E-03  1304   0.859E-02    0.331E-01
DAV:   9    -0.766523855777E+03   -0.60872E-02   -0.27473E-03  1352   0.962E-02    0.151E+00
DAV:  10    -0.766507897469E+03    0.15958E-01   -0.32302E-03  1176   0.133E-01    0.431E-01
DAV:  11    -0.766516316080E+03   -0.84186E-02   -0.14798E-03  1296   0.789E-02    0.295E-01
DAV:  12    -0.766517957986E+03   -0.16419E-02   -0.25436E-04  1368   0.324E-02    0.319E-01
DAV:  13    -0.766517761734E+03    0.19625E-03   -0.64894E-05  1328   0.167E-02    0.355E-01
DAV:  14    -0.766516875605E+03    0.88613E-03   -0.86852E-05  1336   0.175E-02    0.395E-01
DAV:  15    -0.766516150304E+03    0.72530E-03   -0.49161E-05  1280   0.130E-02    0.425E-01
DAV:  16    -0.766516999871E+03   -0.84957E-03   -0.50274E-05  1200   0.141E-02    0.393E-01
DAV:  17    -0.766519138702E+03   -0.21388E-02   -0.39057E-04  1264   0.383E-02    0.307E-01
DAV:  18    -0.766520919511E+03   -0.17808E-02   -0.49676E-04  1264   0.417E-02    0.304E-01
DAV:  19    -0.766522534197E+03   -0.16147E-02   -0.33955E-04  1416   0.333E-02    0.578E-01
DAV:  20    -0.766521381307E+03    0.11529E-02   -0.97989E-05  1104   0.252E-02    0.675E-01
DAV:  21    -0.766520099953E+03    0.12814E-02   -0.22189E-05  1032   0.128E-02    0.645E-01
DAV:  22    -0.766519863202E+03    0.23675E-03   -0.29293E-06   872   0.393E-03    0.608E-01
DAV:  23    -0.766517874899E+03    0.19883E-02   -0.26052E-04  1248   0.305E-02    0.324E-01
DAV:  24    -0.766519746345E+03   -0.18714E-02   -0.99455E-05  1136   0.250E-02    0.308E-01
DAV:  25    -0.766519713933E+03    0.32411E-04   -0.35112E-05  1256   0.116E-02    0.286E-01
DAV:  26    -0.766519296283E+03    0.41765E-03   -0.69507E-05  1320   0.153E-02    0.288E-01
DAV:  27    -0.766518941943E+03    0.35434E-03   -0.45613E-05  1304   0.123E-02    0.306E-01
DAV:  28    -0.766518177247E+03    0.76470E-03   -0.71123E-05  1288   0.162E-02    0.341E-01
DAV:  29    -0.766517921703E+03    0.25554E-03   -0.18982E-05  1088   0.766E-03    0.354E-01
DAV:  30    -0.766517829190E+03    0.92512E-04   -0.27389E-06   792   0.320E-03    0.360E-01
DAV:  31    -0.766517829034E+03    0.15603E-06   -0.87083E-07   672   0.171E-03
    9 T=   137. E= -.76856847E+03 F= -.76984730E+03 E0= -.76984729E+03  EK= 0.15745E+01 SP= -.60E+00 SK= 0.31E+00 mag=      4.389
       N       E                     dE             d eps       ncg     rms          rms(c)
DAV:   1    -0.766154627279E+03    0.36320E+00   -0.42319E-02  1144   0.130E+00    0.447E+00
DAV:   2    -0.764762413689E+03    0.13922E+01   -0.17979E+00  1208   0.214E+00    0.180E+00
DAV:   3    -0.763780729322E+03    0.98168E+00   -0.22862E-01  1336   0.763E-01    0.122E+00
DAV:   4    -0.763994784617E+03   -0.21406E+00   -0.75723E-02  1288   0.430E-01    0.796E-01
DAV:   5    -0.764917161933E+03   -0.92238E+00   -0.91175E-02  1208   0.357E-01    0.465E-01
DAV:   6    -0.765996060272E+03   -0.10789E+01   -0.80586E-02  1232   0.274E-01    0.289E-01
DAV:   7    -0.766577016248E+03   -0.58096E+00   -0.32529E-02  1320   0.196E-01    0.145E+00
DAV:   8    -0.766648183036E+03   -0.71167E-01   -0.30639E-02  1392   0.321E-01    0.675E-01
DAV:   9    -0.766693769123E+03   -0.45586E-01   -0.26586E-02  1320   0.291E-01    0.815E-02
DAV:  10    -0.766714718532E+03   -0.20949E-01   -0.58688E-03  1296   0.122E-01    0.191E-01
DAV:  11    -0.766718445688E+03   -0.37272E-02   -0.12177E-03  1288   0.641E-02    0.649E-02
DAV:  12    -0.766719425227E+03   -0.97954E-03   -0.37564E-04  1368   0.322E-02    0.187E-02
DAV:  13    -0.766719857692E+03   -0.43247E-03   -0.13460E-04  1280   0.204E-02    0.424E-02
DAV:  14    -0.766720130548E+03   -0.27286E-03   -0.50707E-05  1280   0.131E-02    0.192E-02
DAV:  15    -0.766720452509E+03   -0.32196E-03   -0.35882E-05  1040   0.755E-03    0.157E-02
DAV:  16    -0.766720589778E+03   -0.13727E-03   -0.25858E-05  1056   0.763E-03    0.128E-02
DAV:  17    -0.766720645703E+03   -0.55925E-04   -0.14679E-05   896   0.496E-03    0.123E-02
DAV:  18    -0.766720682143E+03   -0.36440E-04   -0.22682E-05   912   0.499E-03    0.126E-02
DAV:  19    -0.766720686889E+03   -0.47462E-05   -0.23899E-06   976   0.269E-03
   10 T=   158. E= -.76865566E+03 F= -.77005093E+03 E0= -.77005093E+03  EK= 0.18157E+01 SP= -.85E+00 SK= 0.43E+00 mag=      2.001
       N       E                     dE             d eps       ncg     rms          rms(c)
DAV:   1    -0.766434271290E+03    0.28641E+00   -0.52278E-02  1152   0.164E+00    0.423E+00
DAV:   2    -0.766236706605E+03    0.19756E+00   -0.12198E+00  1288   0.187E+00    0.171E+00
DAV:   3    -0.765932082062E+03    0.30462E+00   -0.55784E-01  1312   0.851E-01    0.153E+00
DAV:   4    -0.766005394315E+03   -0.73312E-01   -0.25218E-01  1368   0.615E-01    0.840E-01
DAV:   5    -0.766194613617E+03   -0.18922E+00   -0.69004E-02  1224   0.330E-01    0.561E-01
DAV:   6    -0.766414182943E+03   -0.21957E+00   -0.39442E-02  1280   0.229E-01    0.361E-01
DAV:   7    -0.766662300296E+03   -0.24812E+00   -0.37176E-02  1352   0.224E-01    0.192E-01
DAV:   8    -0.766769003772E+03   -0.10670E+00   -0.79393E-03  1312   0.111E-01    0.136E-01
DAV:   9    -0.766827441014E+03   -0.58437E-01   -0.50576E-03  1328   0.748E-02    0.931E-02
DAV:  10    -0.766856214123E+03   -0.28773E-01   -0.50464E-03  1328   0.702E-02    0.519E-02
DAV:  11    -0.766863745374E+03   -0.75313E-02   -0.18531E-03  1400   0.445E-02    0.310E-02
DAV:  12    -0.766865347011E+03   -0.16016E-02   -0.67662E-04  1304   0.267E-02    0.188E-02
DAV:  13    -0.766865508136E+03   -0.16113E-03   -0.15364E-04  1336   0.131E-02    0.152E-02
DAV:  14    -0.766865549420E+03   -0.41284E-04   -0.80516E-05  1152   0.931E-03    0.122E-02
DAV:  15    -0.766865646538E+03   -0.97118E-04   -0.16781E-05   896   0.599E-03    0.116E-02
DAV:  16    -0.766865686188E+03   -0.39650E-04   -0.53120E-06   904   0.336E-03    0.114E-02
DAV:  17    -0.766865702361E+03   -0.16172E-04   -0.24770E-06   880   0.249E-03    0.113E-02
DAV:  18    -0.766865706754E+03   -0.43936E-05   -0.96126E-07   928   0.157E-03
   11 T=   184. E= -.76866483E+03 F= -.77019681E+03 E0= -.77019681E+03  EK= 0.21197E+01 SP= -.11E+01 SK= 0.56E+00 mag=     -2.000
       N       E                     dE             d eps       ncg     rms          rms(c)
DAV:   1    -0.765952534796E+03    0.91317E+00   -0.36625E-01  1200   0.175E+00    0.547E+00
DAV:   2    -0.764957584974E+03    0.99495E+00   -0.24591E+00  1224   0.261E+00    0.174E+00
DAV:   3    -0.764132769124E+03    0.82482E+00   -0.29880E-01  1312   0.874E-01    0.119E+00
DAV:   4    -0.764333854295E+03   -0.20109E+00   -0.61651E-02  1272   0.393E-01    0.827E-01
DAV:   5    -0.765200237248E+03   -0.86638E+00   -0.11485E-01  1184   0.373E-01    0.468E-01
DAV:   6    -0.766285611960E+03   -0.10854E+01   -0.98989E-02  1264   0.312E-01    0.216E-01
DAV:   7    -0.766835529595E+03   -0.54992E+00   -0.29042E-02  1328   0.180E-01    0.909E-02
DAV:   8    -0.766918884856E+03   -0.83355E-01   -0.40759E-03  1336   0.747E-02    0.407E-02
DAV:   9    -0.766920303499E+03   -0.14186E-02   -0.40821E-04  1264   0.277E-02    0.244E-02
DAV:  10    -0.766921458603E+03   -0.11551E-02   -0.78907E-05  1120   0.145E-02    0.149E-02
DAV:  11    -0.766921772382E+03   -0.31378E-03   -0.25678E-05  1072   0.851E-03    0.129E-02
DAV:  12    -0.766922126487E+03   -0.35410E-03   -0.15300E-05  1024   0.597E-03    0.121E-02
DAV:  13    -0.766922407496E+03   -0.28101E-03   -0.19043E-05  1008   0.523E-03    0.116E-02
DAV:  14    -0.766922476628E+03   -0.69133E-04   -0.41530E-06   952   0.338E-03    0.114E-02
DAV:  15    -0.766922520938E+03   -0.44310E-04   -0.30620E-06   896   0.241E-03    0.114E-02
DAV:  16    -0.766922537614E+03   -0.16676E-04   -0.97986E-07   928   0.185E-03    0.114E-02
DAV:  17    -0.766922547191E+03   -0.95767E-05   -0.43500E-07   864   0.116E-03
   12 T=   207. E= -.76866945E+03 F= -.77025460E+03 E0= -.77025460E+03  EK= 0.23855E+01 SP= -.15E+01 SK= 0.67E+00 mag=     -2.000
       N       E                     dE             d eps       ncg     rms          rms(c)
DAV:   1    -0.766774232166E+03    0.14831E+00   -0.17603E-01  1232   0.148E+00    0.105E+00
DAV:   2    -0.766734261402E+03    0.39971E-01   -0.13107E-01  1240   0.629E-01    0.410E-01
DAV:   3    -0.766662506009E+03    0.71755E-01   -0.16031E-02  1272   0.208E-01    0.286E-01
DAV:   4    -0.766639139035E+03    0.23367E-01   -0.83021E-03  1312   0.118E-01    0.205E-01
DAV:   5    -0.766688068291E+03   -0.48929E-01   -0.96085E-03  1208   0.109E-01    0.122E-01
DAV:   6    -0.766767462391E+03   -0.79394E-01   -0.64056E-03  1264   0.908E-02    0.619E-02
DAV:   7    -0.766801147319E+03   -0.33685E-01   -0.12786E-03  1352   0.458E-02    0.329E-02
DAV:   8    -0.766813170964E+03   -0.12024E-01   -0.36535E-04  1240   0.231E-02    0.195E-02
DAV:   9    -0.766814964871E+03   -0.17939E-02   -0.77233E-05  1136   0.114E-02    0.139E-02
DAV:  10    -0.766815424243E+03   -0.45937E-03   -0.26138E-05  1032   0.708E-03    0.121E-02
DAV:  11    -0.766815471825E+03   -0.47582E-04   -0.57597E-06   992   0.405E-03    0.115E-02
DAV:  12    -0.766815517639E+03   -0.45814E-04   -0.30419E-06   880   0.281E-03    0.114E-02
DAV:  13    -0.766815535840E+03   -0.18201E-04   -0.11920E-06   896   0.182E-03    0.114E-02
DAV:  14    -0.766815542200E+03   -0.63603E-05   -0.71734E-07   848   0.129E-03
   13 T=   220. E= -.76866879E+03 F= -.77014856E+03 E0= -.77014856E+03  EK= 0.25306E+01 SP= -.18E+01 SK= 0.77E+00 mag=      2.000
       N       E                     dE             d eps       ncg     rms          rms(c)
DAV:   1    -0.765478961426E+03    0.13366E+01   -0.15126E-01  1208   0.185E+00    0.597E+00
DAV:   2    -0.762456566710E+03    0.30224E+01   -0.39129E+00  1208   0.301E+00    0.230E+00
DAV:   3    -0.761432001103E+03    0.10246E+01   -0.41386E-01  1304   0.987E-01    0.158E+00
DAV:   4    -0.762097912168E+03   -0.66591E+00   -0.14933E-01  1240   0.530E-01    0.110E+00
DAV:   5    -0.763775380274E+03   -0.16775E+01   -0.27282E-01  1184   0.541E-01    0.594E-01
DAV:   6    -0.765597953385E+03   -0.18226E+01   -0.20717E-01  1216   0.448E-01    0.262E-01
DAV:   7    -0.766444713678E+03   -0.84676E+00   -0.55100E-02  1288   0.246E-01    0.985E-02
DAV:   8    -0.766542234045E+03   -0.97520E-01   -0.48405E-03  1344   0.855E-02    0.471E-02
DAV:   9    -0.766543559468E+03   -0.13254E-02   -0.42153E-04  1336   0.306E-02    0.291E-02
DAV:  10    -0.766545256435E+03   -0.16970E-02   -0.16442E-04  1248   0.203E-02    0.180E-02
DAV:  11    -0.766545869548E+03   -0.61311E-03   -0.56776E-05  1136   0.120E-02    0.147E-02
DAV:  12    -0.766546633459E+03   -0.76391E-03   -0.39773E-05  1048   0.926E-03    0.129E-02
DAV:  13    -0.766547061840E+03   -0.42838E-03   -0.36431E-05  1080   0.802E-03    0.120E-02
DAV:  14    -0.766547171346E+03   -0.10951E-03   -0.83937E-06  1016   0.511E-03    0.117E-02
DAV:  15    -0.766547251611E+03   -0.80265E-04   -0.64267E-06   888   0.403E-03    0.115E-02
DAV:  16    -0.766547273944E+03   -0.22333E-04   -0.20517E-06   976   0.263E-03    0.115E-02
DAV:  17    -0.766547291619E+03   -0.17675E-04   -0.10005E-06   856   0.204E-03    0.115E-02
DAV:  18    -0.766547299615E+03   -0.79961E-05   -0.65116E-07   904   0.157E-03
   14 T=   221. E= -.76866053E+03 F= -.76988120E+03 E0= -.76988120E+03  EK= 0.25471E+01 SP= -.22E+01 SK= 0.87E+00 mag=      2.000
       N       E                     dE             d eps       ncg     rms          rms(c)
DAV:   1    -0.766149974112E+03    0.39732E+00   -0.10146E+00  1248   0.169E+00    0.143E+00
DAV:   2    -0.766065016795E+03    0.84957E-01   -0.18745E-01  1256   0.797E-01    0.563E-01
DAV:   3    -0.765927420678E+03    0.13760E+00   -0.21802E-02  1280   0.258E-01    0.373E-01
DAV:   4    -0.765881478862E+03    0.45942E-01   -0.50435E-03  1320   0.117E-01    0.263E-01
DAV:   5    -0.765977172617E+03   -0.95694E-01   -0.95211E-03  1224   0.108E-01    0.151E-01
DAV:   6    -0.766130363381E+03   -0.15319E+00   -0.80178E-03  1272   0.949E-02    0.764E-02
DAV:   7    -0.766200610781E+03   -0.70247E-01   -0.35112E-03  1344   0.628E-02    0.333E-02
DAV:   8    -0.766214706812E+03   -0.14096E-01   -0.80634E-04  1248   0.302E-02    0.180E-02
DAV:   9    -0.766214875838E+03   -0.16903E-03   -0.90900E-05  1152   0.116E-02    0.144E-02
DAV:  10    -0.766214935405E+03   -0.59566E-04   -0.36783E-05  1016   0.719E-03    0.126E-02
DAV:  11    -0.766215097310E+03   -0.16191E-03   -0.26526E-05   872   0.566E-03    0.121E-02
DAV:  12    -0.766215136193E+03   -0.38883E-04   -0.19896E-05   936   0.499E-03    0.118E-02
DAV:  13    -0.766215154040E+03   -0.17847E-04   -0.12597E-05   888   0.407E-03    0.116E-02
DAV:  14    -0.766215164255E+03   -0.10215E-04   -0.55459E-06   848   0.320E-03    0.116E-02
DAV:  15    -0.766215166779E+03   -0.25241E-05   -0.22465E-06   904   0.230E-03
   15 T=   218. E= -.76865495E+03 F= -.76954978E+03 E0= -.76954978E+03  EK= 0.25122E+01 SP= -.26E+01 SK= 0.98E+00 mag=     -2.000
       N       E                     dE             d eps       ncg     rms          rms(c)
DAV:   1    -0.764581287515E+03    0.16339E+01   -0.57801E-02  1328   0.171E+00    0.656E+00
DAV:   2    -0.760863609077E+03    0.37177E+01   -0.50221E+00  1216   0.335E+00    0.251E+00
DAV:   3    -0.759838200820E+03    0.10254E+01   -0.50626E-01  1312   0.110E+00    0.174E+00
DAV:   4    -0.760737123352E+03   -0.89892E+00   -0.19909E-01  1248   0.601E-01    0.122E+00
DAV:   5    -0.762699362226E+03   -0.19622E+01   -0.34899E-01  1184   0.605E-01    0.659E-01
DAV:   6    -0.764781493575E+03   -0.20821E+01   -0.26100E-01  1216   0.505E-01    0.292E-01
DAV:   7    -0.765764191099E+03   -0.98270E+00   -0.69903E-02  1280   0.275E-01    0.112E-01
DAV:   8    -0.765880760098E+03   -0.11657E+00   -0.58873E-03  1352   0.945E-02    0.544E-02
DAV:   9    -0.765882504231E+03   -0.17441E-02   -0.67888E-04  1312   0.367E-02    0.335E-02
DAV:  10    -0.765884734600E+03   -0.22304E-02   -0.36620E-04  1288   0.259E-02    0.209E-02
DAV:  11    -0.765885452035E+03   -0.71743E-03   -0.15804E-04  1152   0.171E-02    0.169E-02
DAV:  12    -0.765886367364E+03   -0.91533E-03   -0.11581E-04  1096   0.145E-02    0.145E-02
DAV:  13    -0.765886878379E+03   -0.51102E-03   -0.14562E-04  1120   0.140E-02    0.128E-02
DAV:  14    -0.765887010923E+03   -0.13254E-03   -0.45185E-05  1088   0.955E-03    0.124E-02
DAV:  15    -0.765887092334E+03   -0.81411E-04   -0.42457E-05   992   0.813E-03    0.119E-02
DAV:  16    -0.765887123916E+03   -0.31581E-04   -0.11454E-05   968   0.533E-03    0.118E-02
DAV:  17    -0.765887151866E+03   -0.27951E-04   -0.14685E-05   904   0.469E-03    0.117E-02
DAV:  18    -0.765887158134E+03   -0.62680E-05   -0.53377E-06   904   0.326E-03
   16 T=   216. E= -.76865452E+03 F= -.76922228E+03 E0= -.76922228E+03  EK= 0.24896E+01 SP= -.30E+01 SK= 0.11E+01 mag=     -2.000
       N       E                     dE             d eps       ncg     rms          rms(c)
DAV:   1    -0.765551014977E+03    0.33614E+00   -0.49965E-01  1296   0.140E+00    0.162E+00
DAV:   2    -0.765606775063E+03   -0.55760E-01   -0.46475E-01  1248   0.885E-01    0.627E-01
DAV:   3    -0.765567590894E+03    0.39184E-01   -0.67776E-02  1352   0.395E-01    0.326E-01
DAV:   4    -0.765565093236E+03    0.24977E-02   -0.11247E-02  1288   0.188E-01    0.164E-01
DAV:   5    -0.765597716921E+03   -0.32624E-01   -0.13835E-03  1208   0.794E-02    0.119E-01
DAV:   6    -0.765634067240E+03   -0.36350E-01   -0.97303E-04  1232   0.423E-02    0.808E-02
DAV:   7    -0.765668854812E+03   -0.34788E-01   -0.14484E-03  1280   0.420E-02    0.375E-02
DAV:   8    -0.765682206634E+03   -0.13352E-01   -0.52840E-04  1256   0.256E-02    0.191E-02
DAV:   9    -0.765684740829E+03   -0.25342E-02   -0.87356E-05  1104   0.118E-02    0.137E-02
DAV:  10    -0.765685170714E+03   -0.42989E-03   -0.22292E-05  1016   0.661E-03    0.120E-02
DAV:  11    -0.765685197659E+03   -0.26945E-04   -0.17752E-06   984   0.265E-03    0.118E-02
DAV:  12    -0.765685218921E+03   -0.21262E-04   -0.79987E-07   912   0.152E-03    0.117E-02
DAV:  13    -0.765685235017E+03   -0.16096E-04   -0.47184E-07   856   0.109E-03    0.117E-02
DAV:  14    -0.765685240519E+03   -0.55021E-05   -0.26578E-07   872   0.785E-04
   17 T=   217. E= -.76876709E+03 F= -.76902076E+03 E0= -.76902076E+03  EK= 0.24960E+01 SP= -.35E+01 SK= 0.12E+01 mag=      0.000
       N       E                     dE             d eps       ncg     rms          rms(c)
DAV:   1    -0.764962069058E+03    0.72317E+00   -0.24282E-01  1216   0.170E+00    0.352E+00
DAV:   2    -0.764780612138E+03    0.18146E+00   -0.99349E-01  1224   0.174E+00    0.112E+00
DAV:   3    -0.764316676243E+03    0.46394E+00   -0.16172E-01  1320   0.632E-01    0.763E-01
DAV:   4    -0.764322547623E+03   -0.58714E-02   -0.28652E-02  1344   0.298E-01    0.491E-01
DAV:   5    -0.764651138554E+03   -0.32859E+00   -0.23282E-02  1216   0.191E-01    0.325E-01
DAV:   6    -0.765169803369E+03   -0.51866E+00   -0.36108E-02  1256   0.190E-01    0.152E-01
DAV:   7    -0.765383459911E+03   -0.21366E+00   -0.10795E-02  1312   0.113E-01    0.494E-02
DAV:   8    -0.765417442070E+03   -0.33982E-01   -0.11986E-03  1344   0.428E-02    0.242E-02
DAV:   9    -0.765421675188E+03   -0.42331E-02   -0.20181E-04  1136   0.178E-02    0.157E-02
DAV:  10    -0.765421840146E+03   -0.16496E-03   -0.37820E-05  1128   0.915E-03    0.131E-02
DAV:  11    -0.765422097901E+03   -0.25776E-03   -0.85531E-06   952   0.544E-03    0.123E-02
DAV:  12    -0.765422279305E+03   -0.18140E-03   -0.91064E-06   976   0.442E-03    0.120E-02
DAV:  13    -0.765422331209E+03   -0.51904E-04   -0.37527E-06   928   0.312E-03    0.119E-02
DAV:  14    -0.765422391067E+03   -0.59858E-04   -0.34417E-06   896   0.254E-03    0.118E-02
DAV:  15    -0.765422412978E+03   -0.21911E-04   -0.15825E-06   888   0.192E-03    0.118E-02
DAV:  16    -0.765422422011E+03   -0.90323E-05   -0.66807E-07   872   0.133E-03
   18 T=   225. E= -.76876021E+03 F= -.76875836E+03 E0= -.76875836E+03  EK= 0.25842E+01 SP= -.39E+01 SK= 0.13E+01 mag=     -0.000
       N       E                     dE             d eps       ncg     rms          rms(c)
DAV:   1    -0.765156518254E+03    0.26589E+00   -0.42458E-01  1248   0.154E+00    0.349E-01
DAV:   2    -0.765162031095E+03   -0.55128E-02   -0.63778E-02  1216   0.470E-01    0.187E-01
DAV:   3    -0.765163566633E+03   -0.15355E-02   -0.26848E-03  1328   0.963E-02    0.111E-01
DAV:   4    -0.765163549290E+03    0.17344E-04   -0.14652E-03  1312   0.496E-02    0.792E-02
DAV:   5    -0.765163913054E+03   -0.36376E-03   -0.22188E-03  1336   0.402E-02    0.628E-02
DAV:   6    -0.765164454180E+03   -0.54113E-03   -0.17521E-03  1384   0.326E-02    0.662E-02
DAV:   7    -0.765164370368E+03    0.83811E-04   -0.96295E-05  1056   0.138E-02    0.679E-02
DAV:   8    -0.765164797899E+03   -0.42753E-03   -0.14887E-03  1272   0.266E-02    0.766E-02
DAV:   9    -0.765164503742E+03    0.29416E-03   -0.32988E-04  1152   0.150E-02    0.766E-02
DAV:  10    -0.765165319054E+03   -0.81531E-03   -0.63795E-02  1304   0.177E-01    0.116E-01
DAV:  11    -0.765167060590E+03   -0.17415E-02   -0.18544E-03  1232   0.610E-02    0.139E-01
DAV:  12    -0.765161245499E+03    0.58151E-02   -0.80515E-02  1304   0.205E-01    0.126E-01
DAV:  13    -0.765162240741E+03   -0.99524E-03   -0.96698E-03  1216   0.989E-02    0.131E-01
DAV:  14    -0.765155781409E+03    0.64593E-02   -0.81182E-02  1328   0.216E-01    0.301E-01
DAV:  15    -0.765161980147E+03   -0.61987E-02   -0.18523E-01  1248   0.339E-01    0.959E-02
DAV:  16    -0.765164745951E+03   -0.27658E-02   -0.51986E-03  1160   0.885E-02    0.124E-01
DAV:  17    -0.765164676386E+03    0.69565E-04   -0.97679E-05  1320   0.163E-02    0.127E-01
DAV:  18    -0.765165332767E+03   -0.65638E-03   -0.50669E-03  1312   0.521E-02    0.122E-01
DAV:  19    -0.765165927006E+03   -0.59424E-03   -0.14975E-02  1376   0.914E-02    0.138E-01
DAV:  20    -0.765166640201E+03   -0.71320E-03   -0.38712E-03  1352   0.535E-02    0.152E-01
DAV:  21    -0.765166666688E+03   -0.26488E-04   -0.49886E-05  1024   0.150E-02    0.153E-01
DAV:  22    -0.765166586504E+03    0.80184E-04   -0.30470E-06   864   0.474E-03    0.153E-01
DAV:  23    -0.765166566805E+03    0.19699E-04   -0.49336E-07   952   0.187E-03    0.153E-01
DAV:  24    -0.765166568128E+03   -0.13233E-05   -0.21104E-07   760   0.758E-04
   19 T=   247. E= -.76862942E+03 F= -.76850307E+03 E0= -.76850307E+03  EK= 0.28431E+01 SP= -.44E+01 SK= 0.14E+01 mag=     -2.001
       N       E                     dE             d eps       ncg     rms          rms(c)
DAV:   1    -0.764461603899E+03    0.70496E+00   -0.20537E-01  1264   0.178E+00    0.462E+00
DAV:   2    -0.764860210823E+03   -0.39861E+00   -0.14034E+00  1280   0.217E+00    0.999E-01
DAV:   3    -0.764726500552E+03    0.13371E+00   -0.15416E-01  1288   0.659E-01    0.664E-01
DAV:   4    -0.764723135472E+03    0.33651E-02   -0.14500E-02  1376   0.234E-01    0.369E-01
DAV:   5    -0.764838041316E+03   -0.11491E+00   -0.97489E-03  1248   0.133E-01    0.246E-01
DAV:   6    -0.765040093088E+03   -0.20205E+00   -0.98876E-03  1280   0.110E-01    0.142E-01
DAV:   7    -0.765195703542E+03   -0.15561E+00   -0.79752E-03  1296   0.947E-02    0.551E-02
DAV:   8    -0.765223138390E+03   -0.27435E-01   -0.99024E-04  1336   0.369E-02    0.264E-02
DAV:   9    -0.765229084663E+03   -0.59463E-02   -0.29978E-04  1136   0.194E-02    0.153E-02
DAV:  10    -0.765229181213E+03   -0.96550E-04   -0.25422E-05  1112   0.744E-03    0.126E-02
DAV:  11    -0.765229375916E+03   -0.19470E-03   -0.47104E-06   912   0.388E-03    0.120E-02
DAV:  12    -0.765229456013E+03   -0.80098E-04   -0.29908E-06   944   0.263E-03    0.118E-02
DAV:  13    -0.765229489840E+03   -0.33827E-04   -0.17271E-06   928   0.198E-03    0.118E-02
DAV:  14    -0.765229515047E+03   -0.25207E-04   -0.13566E-06   896   0.163E-03    0.118E-02
DAV:  15    -0.765229524961E+03   -0.99141E-05   -0.74131E-07   864   0.119E-03
   20 T=   291. E= -.76864187E+03 F= -.76856677E+03 E0= -.76856677E+03  EK= 0.33438E+01 SP= -.49E+01 SK= 0.15E+01 mag=     -4.000
       N       E                     dE             d eps       ncg     rms          rms(c)
DAV:   1    -0.764693445114E+03    0.53607E+00   -0.65708E-02  1240   0.186E+00    0.470E+00
DAV:   2    -0.764371082703E+03    0.32236E+00   -0.16752E+00  1232   0.225E+00    0.140E+00
DAV:   3    -0.763774067027E+03    0.59702E+00   -0.24690E-01  1304   0.777E-01    0.971E-01
DAV:   4    -0.763846968420E+03   -0.72901E-01   -0.62451E-02  1304   0.337E-01    0.703E-01
DAV:   5    -0.764319846597E+03   -0.47288E+00   -0.12073E-01  1216   0.358E-01    0.451E-01
DAV:   6    -0.764993499474E+03   -0.67365E+00   -0.92729E-02  1272   0.351E-01    0.249E-01
DAV:   7    -0.765231089536E+03   -0.23759E+00   -0.90433E-03  1320   0.143E-01    0.158E-01
DAV:   8    -0.765432973044E+03   -0.20188E+00   -0.10697E-02  1256   0.112E-01    0.847E-02
DAV:   9    -0.765456972746E+03   -0.24000E-01   -0.11103E-03  1352   0.446E-02    0.368E-02
DAV:  10    -0.765466609432E+03   -0.96367E-02   -0.52381E-04  1280   0.270E-02    0.177E-02
DAV:  11    -0.765467876220E+03   -0.12668E-02   -0.85451E-05  1168   0.117E-02    0.141E-02
DAV:  12    -0.765468255773E+03   -0.37955E-03   -0.36210E-05  1008   0.778E-03    0.127E-02
DAV:  13    -0.765468411144E+03   -0.15537E-03   -0.18586E-05  1040   0.501E-03    0.122E-02
DAV:  14    -0.765468510768E+03   -0.99623E-04   -0.14672E-05   976   0.459E-03    0.119E-02
DAV:  15    -0.765468561174E+03   -0.50406E-04   -0.74953E-06   912   0.343E-03    0.118E-02
DAV:  16    -0.765468576547E+03   -0.15373E-04   -0.28529E-06   904   0.237E-03    0.118E-02
DAV:  17    -0.765468588902E+03   -0.12355E-04   -0.14819E-06   880   0.176E-03    0.117E-02
DAV:  18    -0.765468593091E+03   -0.41894E-05   -0.74999E-07   872   0.124E-03
   21 T=   357. E= -.76866426E+03 F= -.76880676E+03 E0= -.76880676E+03  EK= 0.41042E+01 SP= -.54E+01 SK= 0.15E+01 mag=     -2.000
       N       E                     dE             d eps       ncg     rms          rms(c)
DAV:   1    -0.765308852286E+03    0.15974E+00   -0.55711E-01  1240   0.199E+00    0.415E+00
DAV:   2    -0.764718387839E+03    0.59046E+00   -0.14609E+00  1224   0.201E+00    0.145E+00
DAV:   3    -0.764005301872E+03    0.71309E+00   -0.23782E-01  1304   0.756E-01    0.989E-01
DAV:   4    -0.764091793224E+03   -0.86491E-01   -0.54645E-02  1320   0.379E-01    0.646E-01
DAV:   5    -0.764654697991E+03   -0.56290E+00   -0.47149E-02  1200   0.263E-01    0.415E-01
DAV:   6    -0.765465384381E+03   -0.81069E+00   -0.63998E-02  1232   0.246E-01    0.199E-01
DAV:   7    -0.765833452223E+03   -0.36807E+00   -0.21033E-02  1296   0.154E-01    0.715E-02
DAV:   8    -0.765886546112E+03   -0.53094E-01   -0.24409E-03  1344   0.597E-02    0.327E-02
DAV:   9    -0.765889265475E+03   -0.27194E-02   -0.28217E-04  1256   0.232E-02    0.191E-02
DAV:  10    -0.765889739651E+03   -0.47418E-03   -0.47532E-05  1104   0.120E-02    0.141E-02
DAV:  11    -0.765890108586E+03   -0.36893E-03   -0.18860E-05  1024   0.780E-03    0.127E-02
DAV:  12    -0.765890302460E+03   -0.19387E-03   -0.10031E-05  1016   0.553E-03    0.122E-02
DAV:  13    -0.765890428341E+03   -0.12588E-03   -0.86721E-06   968   0.421E-03    0.119E-02
DAV:  14    -0.765890502384E+03   -0.74043E-04   -0.51685E-06   904   0.332E-03    0.118E-02
DAV:  15    -0.765890527176E+03   -0.24792E-04   -0.20957E-06   904   0.231E-03    0.118E-02
DAV:  16    -0.765890538511E+03   -0.11335E-04   -0.83030E-07   912   0.162E-03    0.118E-02
DAV:  17    -0.765890545044E+03   -0.65335E-05   -0.38934E-07   856   0.108E-03
   22 T=   439. E= -.76878939E+03 F= -.76922986E+03 E0= -.76922986E+03  EK= 0.50474E+01 SP= -.59E+01 SK= 0.13E+01 mag=     -0.000
       N       E                     dE             d eps       ncg     rms          rms(c)
DAV:   1    -0.765522309013E+03    0.36823E+00   -0.95020E-02  1192   0.210E+00    0.403E+00
DAV:   2    -0.765791627676E+03   -0.26932E+00   -0.11226E+00  1272   0.194E+00    0.926E-01
DAV:   3    -0.765665107059E+03    0.12652E+00   -0.13834E-01  1272   0.621E-01    0.626E-01
DAV:   4    -0.765661501974E+03    0.36051E-02   -0.16424E-02  1352   0.241E-01    0.351E-01
DAV:   5    -0.765771238805E+03   -0.10974E+00   -0.10613E-02  1232   0.141E-01    0.226E-01
DAV:   6    -0.765939549552E+03   -0.16831E+00   -0.69764E-03  1264   0.984E-02    0.137E-01
DAV:   7    -0.766075727497E+03   -0.13618E+00   -0.65041E-03  1304   0.870E-02    0.589E-02
DAV:   8    -0.766104181199E+03   -0.28454E-01   -0.11965E-03  1328   0.399E-02    0.280E-02
DAV:   9    -0.766108900211E+03   -0.47190E-02   -0.21834E-04  1168   0.184E-02    0.165E-02
DAV:  10    -0.766109253220E+03   -0.35301E-03   -0.35896E-05  1072   0.870E-03    0.125E-02
DAV:  11    -0.766109363092E+03   -0.10987E-03   -0.41061E-06   968   0.432E-03    0.120E-02
DAV:  12    -0.766109444223E+03   -0.81130E-04   -0.25076E-06   920   0.263E-03    0.118E-02
DAV:  13    -0.766109484338E+03   -0.40116E-04   -0.17949E-06   896   0.202E-03    0.118E-02
DAV:  14    -0.766109502047E+03   -0.17709E-04   -0.12666E-06   896   0.162E-03    0.118E-02
DAV:  15    -0.766109508973E+03   -0.69262E-05   -0.68222E-07   888   0.124E-03
   23 T=   519. E= -.76880382E+03 F= -.76945022E+03 E0= -.76945022E+03  EK= 0.59687E+01 SP= -.64E+01 SK= 0.10E+01 mag=     -0.000
       N       E                     dE             d eps       ncg     rms          rms(c)
DAV:   1    -0.765927473420E+03    0.18203E+00   -0.41368E-01  1176   0.209E+00    0.152E+00
DAV:   2    -0.765883148983E+03    0.44324E-01   -0.31772E-01  1216   0.884E-01    0.637E-01
DAV:   3    -0.765762902338E+03    0.12025E+00   -0.53595E-02  1296   0.325E-01    0.428E-01
DAV:   4    -0.765732123079E+03    0.30779E-01   -0.25299E-02  1336   0.224E-01    0.253E-01
DAV:   5    -0.765819107802E+03   -0.86985E-01   -0.67917E-03  1200   0.121E-01    0.166E-01
DAV:   6    -0.765921368071E+03   -0.10226E+00   -0.27034E-03  1280   0.676E-02    0.111E-01
DAV:   7    -0.766004989539E+03   -0.83621E-01   -0.38630E-03  1256   0.644E-02    0.484E-02
DAV:   8    -0.766024326510E+03   -0.19337E-01   -0.92993E-04  1320   0.347E-02    0.210E-02
DAV:   9    -0.766026423512E+03   -0.20970E-02   -0.84267E-05  1120   0.121E-02    0.148E-02
DAV:  10    -0.766026886156E+03   -0.46264E-03   -0.26202E-05  1024   0.757E-03    0.123E-02
DAV:  11    -0.766026927377E+03   -0.41221E-04   -0.26084E-06  1016   0.344E-03    0.119E-02
DAV:  12    -0.766026964826E+03   -0.37449E-04   -0.21406E-06   864   0.207E-03    0.118E-02
DAV:  13    -0.766026981570E+03   -0.16744E-04   -0.67196E-07   896   0.135E-03    0.118E-02
DAV:  14    -0.766026991859E+03   -0.10289E-04   -0.51282E-07   904   0.102E-03    0.118E-02
DAV:  15    -0.766026996538E+03   -0.46788E-05   -0.29011E-07   896   0.722E-04
   24 T=   573. E= -.76880748E+03 F= -.76936934E+03 E0= -.76936934E+03  EK= 0.65902E+01 SP= -.68E+01 SK= 0.73E+00 mag=      0.000
       N       E                     dE             d eps       ncg     rms          rms(c)
DAV:   1    -0.765567903690E+03    0.45909E+00   -0.31334E-01  1232   0.226E+00    0.267E-01
DAV:   2    -0.765577319015E+03   -0.94153E-02   -0.99235E-02  1200   0.592E-01    0.175E-01
DAV:   3    -0.765577119499E+03    0.19952E-03   -0.13537E-03  1384   0.724E-02    0.120E-01
DAV:   4    -0.765577000684E+03    0.11881E-03   -0.50816E-04  1232   0.494E-02    0.479E-02
DAV:   5    -0.765577007738E+03   -0.70534E-05   -0.12126E-04  1232   0.216E-02    0.253E-02
DAV:   6    -0.765577008430E+03   -0.69172E-06   -0.22001E-05  1208   0.938E-03
   25 T=   588. E= -.76879012E+03 F= -.76892110E+03 E0= -.76892110E+03  EK= 0.67639E+01 SP= -.71E+01 SK= 0.44E+00 mag=      0.000
       N       E                     dE             d eps       ncg     rms          rms(c)
DAV:   1    -0.764954668963E+03    0.62234E+00   -0.49495E-01  1192   0.239E+00    0.366E-01
DAV:   2    -0.764964285833E+03   -0.96169E-02   -0.10516E-01  1200   0.616E-01    0.220E-01
DAV:   3    -0.764964049142E+03    0.23669E-03   -0.19136E-03  1376   0.833E-02    0.143E-01
DAV:   4    -0.764963996775E+03    0.52368E-04   -0.57300E-04  1208   0.503E-02    0.607E-02
DAV:   5    -0.764964017818E+03   -0.21043E-04   -0.95871E-05  1224   0.206E-02    0.282E-02
DAV:   6    -0.764964026164E+03   -0.83466E-05   -0.28230E-05  1112   0.105E-02
   26 T=   576. E= -.76877081E+03 F= -.76830985E+03 E0= -.76830985E+03  EK= 0.66211E+01 SP= -.73E+01 SK= 0.22E+00 mag=     -0.000
       N       E                     dE             d eps       ncg     rms          rms(c)
DAV:   1    -0.764390349779E+03    0.57367E+00   -0.12503E-01  1200   0.196E+00    0.215E-01
DAV:   2    -0.764396176048E+03   -0.58263E-02   -0.59852E-02  1216   0.445E-01    0.148E-01
DAV:   3    -0.764396126853E+03    0.49196E-04   -0.76412E-04  1416   0.506E-02    0.104E-01
DAV:   4    -0.764396144957E+03   -0.18104E-04   -0.22759E-04  1224   0.307E-02    0.456E-02
DAV:   5    -0.764396175791E+03   -0.30835E-04   -0.61130E-05  1208   0.153E-02    0.217E-02
DAV:   6    -0.764396183071E+03   -0.72793E-05   -0.12645E-05  1080   0.741E-03
   27 T=   552. E= -.76876905E+03 F= -.76774369E+03 E0= -.76774369E+03  EK= 0.63449E+01 SP= -.75E+01 SK= 0.80E-01 mag=     -0.000
       N       E                     dE             d eps       ncg     rms          rms(c)
DAV:   1    -0.763857526376E+03    0.53865E+00   -0.16782E-01  1240   0.196E+00    0.255E-01
DAV:   2    -0.763864853383E+03   -0.73270E-02   -0.76561E-02  1184   0.527E-01    0.171E-01
DAV:   3    -0.763864750013E+03    0.10337E-03   -0.90297E-04  1408   0.575E-02    0.121E-01
DAV:   4    -0.763864744474E+03    0.55390E-05   -0.25361E-04  1216   0.363E-02    0.546E-02
DAV:   5    -0.763864772636E+03   -0.28162E-04   -0.84728E-05  1224   0.180E-02    0.227E-02
DAV:   6    -0.763864777291E+03   -0.46554E-05   -0.11480E-05  1064   0.720E-03
   28 T=   519. E= -.76876129E+03 F= -.76721403E+03 E0= -.76721403E+03  EK= 0.59693E+01 SP= -.75E+01 SK= 0.15E-01 mag=     -0.000
       N       E                     dE             d eps       ncg     rms          rms(c)
DAV:   1    -0.763400008267E+03    0.46476E+00   -0.28250E-01  1216   0.202E+00    0.281E-01
DAV:   2    -0.763408479933E+03   -0.84717E-02   -0.90503E-02  1184   0.567E-01    0.188E-01
DAV:   3    -0.763408317496E+03    0.16244E-03   -0.12232E-03  1384   0.677E-02    0.132E-01
DAV:   4    -0.763408254708E+03    0.62788E-04   -0.39440E-04  1248   0.449E-02    0.575E-02
DAV:   5    -0.763408275484E+03   -0.20776E-04   -0.10908E-04  1240   0.208E-02    0.250E-02
DAV:   6    -0.763408281112E+03   -0.56282E-05   -0.16609E-05  1088   0.846E-03
   29 T=   483. E= -.76874784E+03 F= -.76675947E+03 E0= -.76675947E+03  EK= 0.55612E+01 SP= -.75E+01 SK= 0.31E-03 mag=      0.000
       N       E                     dE             d eps       ncg     rms          rms(c)
DAV:   1    -0.763151595339E+03    0.25668E+00   -0.19447E-01  1264   0.184E+00    0.227E-01
DAV:   2    -0.763158265019E+03   -0.66697E-02   -0.71095E-02  1224   0.489E-01    0.144E-01
DAV:   3    -0.763158184154E+03    0.80865E-04   -0.10541E-03  1432   0.622E-02    0.995E-02
DAV:   4    -0.763158137270E+03    0.46885E-04   -0.27415E-04  1248   0.383E-02    0.490E-02
DAV:   5    -0.763158148965E+03   -0.11695E-04   -0.86951E-05  1272   0.191E-02    0.245E-02
DAV:   6    -0.763158151444E+03   -0.24795E-05   -0.19568E-05  1096   0.868E-03
   30 T=   458. E= -.76874123E+03 F= -.76651155E+03 E0= -.76651155E+03  EK= 0.52687E+01 SP= -.75E+01 SK= 0.18E-01 mag=      0.000
       N       E                     dE             d eps       ncg     rms          rms(c)
DAV:   1    -0.763175972085E+03   -0.17823E-01   -0.10893E-01  1200   0.172E+00    0.187E-01
DAV:   2    -0.763181075297E+03   -0.51032E-02   -0.53188E-02  1200   0.422E-01    0.127E-01
DAV:   3    -0.763181037043E+03    0.38254E-04   -0.71839E-04  1440   0.499E-02    0.890E-02
DAV:   4    -0.763181009209E+03    0.27834E-04   -0.19386E-04  1264   0.307E-02    0.425E-02
DAV:   5    -0.763181018670E+03   -0.94612E-05   -0.57978E-05  1216   0.154E-02    0.225E-02
DAV:   6    -0.763181020020E+03   -0.13501E-05   -0.10562E-05  1016   0.709E-03
   31 T=   450. E= -.76874440E+03 F= -.76653682E+03 E0= -.76653682E+03  EK= 0.51729E+01 SP= -.74E+01 SK= 0.58E-01 mag=     -0.000
       N       E                     dE             d eps       ncg     rms          rms(c)
DAV:   1    -0.763419892584E+03   -0.23887E+00   -0.64761E-02  1216   0.168E+00    0.161E-01
DAV:   2    -0.763423884533E+03   -0.39919E-02   -0.41487E-02  1240   0.382E-01    0.109E-01
DAV:   3    -0.763423860885E+03    0.23648E-04   -0.53992E-04  1432   0.425E-02    0.763E-02
DAV:   4    -0.763423834096E+03    0.26788E-04   -0.12946E-04  1256   0.244E-02    0.380E-02
DAV:   5    -0.763423841547E+03   -0.74503E-05   -0.39402E-05  1112   0.124E-02    0.205E-02
DAV:   6    -0.763423844015E+03   -0.24684E-05   -0.57199E-06   832   0.556E-03
   32 T=   454. E= -.76875333E+03 F= -.76678205E+03 E0= -.76678205E+03  EK= 0.52272E+01 SP= -.73E+01 SK= 0.12E+00 mag=     -0.000
       N       E                     dE             d eps       ncg     rms          rms(c)
DAV:   1    -0.763759735469E+03   -0.33589E+00   -0.66247E-02  1232   0.174E+00    0.166E-01
DAV:   2    -0.763763846658E+03   -0.41112E-02   -0.42828E-02  1232   0.380E-01    0.113E-01
DAV:   3    -0.763763799907E+03    0.46752E-04   -0.55516E-04  1408   0.447E-02    0.777E-02
DAV:   4    -0.763763758952E+03    0.40954E-04   -0.14814E-04  1248   0.260E-02    0.410E-02
DAV:   5    -0.763763765029E+03   -0.60766E-05   -0.46994E-05  1192   0.135E-02    0.222E-02
DAV:   6    -0.763763768221E+03   -0.31922E-05   -0.78055E-06   976   0.580E-03
   33 T=   461. E= -.76876438E+03 F= -.76712427E+03 E0= -.76712427E+03  EK= 0.53070E+01 SP= -.72E+01 SK= 0.21E+00 mag=      0.000
       N       E                     dE             d eps       ncg     rms          rms(c)
DAV:   1    -0.764058799515E+03   -0.29503E+00   -0.10808E-01  1216   0.184E+00    0.185E-01
DAV:   2    -0.764064331704E+03   -0.55322E-02   -0.57864E-02  1256   0.417E-01    0.133E-01
DAV:   3    -0.764064253229E+03    0.78476E-04   -0.75453E-04  1408   0.515E-02    0.929E-02
DAV:   4    -0.764064192397E+03    0.60832E-04   -0.26696E-04  1248   0.320E-02    0.467E-02
DAV:   5    -0.764064203048E+03   -0.10651E-04   -0.66609E-05  1240   0.157E-02    0.257E-02
DAV:   6    -0.764064207344E+03   -0.42960E-05   -0.12630E-05  1040   0.740E-03
   34 T=   459. E= -.76877419E+03 F= -.76742685E+03 E0= -.76742685E+03  EK= 0.52773E+01 SP= -.69E+01 SK= 0.32E+00 mag=      0.000
       N       E                     dE             d eps       ncg     rms          rms(c)
DAV:   1    -0.764210728279E+03   -0.14653E+00   -0.15668E-01  1224   0.190E+00    0.207E-01
DAV:   2    -0.764217259334E+03   -0.65311E-02   -0.68385E-02  1192   0.453E-01    0.148E-01
DAV:   3    -0.764217150948E+03    0.10839E-03   -0.93816E-04  1416   0.577E-02    0.103E-01
DAV:   4    -0.764217086101E+03    0.64847E-04   -0.33613E-04  1280   0.360E-02    0.505E-02
DAV:   5    -0.764217107078E+03   -0.20976E-04   -0.86962E-05  1240   0.178E-02    0.263E-02
DAV:   6    -0.764217114425E+03   -0.73477E-05   -0.15100E-05  1064   0.822E-03
   35 T=   439. E= -.76877894E+03 F= -.76758166E+03 E0= -.76758166E+03  EK= 0.50463E+01 SP= -.67E+01 SK= 0.45E+00 mag=     -0.000
       N       E                     dE             d eps       ncg     rms          rms(c)
DAV:   1    -0.764190109989E+03    0.26997E-01   -0.21030E-01  1216   0.191E+00    0.219E-01
DAV:   2    -0.764196961864E+03   -0.68519E-02   -0.71908E-02  1200   0.485E-01    0.158E-01
DAV:   3    -0.764196800755E+03    0.16111E-03   -0.10421E-03  1440   0.637E-02    0.109E-01
DAV:   4    -0.764196720122E+03    0.80633E-04   -0.35394E-04  1248   0.398E-02    0.512E-02
DAV:   5    -0.764196732750E+03   -0.12628E-04   -0.10503E-04  1240   0.202E-02    0.235E-02
DAV:   6    -0.764196737038E+03   -0.42883E-05   -0.17236E-05  1104   0.845E-03
   36 T=   402. E= -.76877242E+03 F= -.76756289E+03 E0= -.76756289E+03  EK= 0.46229E+01 SP= -.64E+01 SK= 0.56E+00 mag=     -0.000
       N       E                     dE             d eps       ncg     rms          rms(c)
DAV:   1    -0.764114511821E+03    0.82221E-01   -0.32727E-01  1232   0.191E+00    0.297E-01
DAV:   2    -0.764120613595E+03   -0.61018E-02   -0.70912E-02  1264   0.487E-01    0.193E-01
DAV:   3    -0.764120358014E+03    0.25558E-03   -0.16746E-03  1376   0.758E-02    0.123E-01
DAV:   4    -0.764120321053E+03    0.36960E-04   -0.54176E-04  1272   0.446E-02    0.529E-02
DAV:   5    -0.764120333076E+03   -0.12023E-04   -0.91950E-05  1240   0.199E-02    0.215E-02
DAV:   6    -0.764120338512E+03   -0.54362E-05   -0.17658E-05  1128   0.798E-03
   37 T=   361. E= -.76876276E+03 F= -.76748780E+03 E0= -.76748780E+03  EK= 0.41482E+01 SP= -.61E+01 SK= 0.65E+00 mag=      0.000
       N       E                     dE             d eps       ncg     rms          rms(c)
DAV:   1    -0.764117680578E+03    0.26525E-02   -0.17675E-01  1224   0.169E+00    0.252E-01
DAV:   2    -0.764122766447E+03   -0.50859E-02   -0.56552E-02  1240   0.421E-01    0.168E-01
DAV:   3    -0.764122635249E+03    0.13120E-03   -0.12240E-03  1392   0.617E-02    0.113E-01
DAV:   4    -0.764122641048E+03   -0.57994E-05   -0.44935E-04  1256   0.381E-02    0.561E-02
DAV:   5    -0.764122667908E+03   -0.26859E-04   -0.63804E-05  1248   0.172E-02    0.263E-02
DAV:   6    -0.764122680537E+03   -0.12630E-04   -0.32164E-05  1144   0.103E-02    0.149E-02
DAV:   7    -0.764122686163E+03   -0.56257E-05   -0.35684E-06   872   0.418E-03
   38 T=   327. E= -.76876494E+03 F= -.76749118E+03 E0= -.76749118E+03  EK= 0.37604E+01 SP= -.57E+01 SK= 0.70E+00 mag=      0.000
       N       E                     dE             d eps       ncg     rms          rms(c)
DAV:   1    -0.764179385570E+03   -0.56705E-01   -0.99958E-02  1248   0.154E+00    0.200E-01
DAV:   2    -0.764183637847E+03   -0.42523E-02   -0.45371E-02  1216   0.399E-01    0.131E-01
DAV:   3    -0.764183568827E+03    0.69021E-04   -0.68265E-04  1384   0.494E-02    0.912E-02
DAV:   4    -0.764183548983E+03    0.19844E-04   -0.22857E-04  1232   0.312E-02    0.463E-02
DAV:   5    -0.764183559259E+03   -0.10276E-04   -0.50903E-05  1240   0.150E-02    0.225E-02
DAV:   6    -0.764183563233E+03   -0.39743E-05   -0.18820E-05  1144   0.801E-03
   39 T=   300. E= -.76876743E+03 F= -.76755290E+03 E0= -.76755290E+03  EK= 0.34565E+01 SP= -.54E+01 SK= 0.71E+00 mag=     -0.000
       N       E                     dE             d eps       ncg     rms          rms(c)
DAV:   1    -0.764262041475E+03   -0.78482E-01   -0.18263E-01  1208   0.162E+00    0.214E-01
DAV:   2    -0.764267533711E+03   -0.54922E-02   -0.58193E-02  1184   0.459E-01    0.151E-01
DAV:   3    -0.764267404747E+03    0.12896E-03   -0.85005E-04  1368   0.577E-02    0.105E-01
DAV:   4    -0.764267356201E+03    0.48545E-04   -0.33226E-04  1216   0.387E-02    0.495E-02
DAV:   5    -0.764267365464E+03   -0.92625E-05   -0.67695E-05  1232   0.175E-02    0.239E-02
DAV:   6    -0.764267372658E+03   -0.71943E-05   -0.22128E-05  1168   0.865E-03
   40 T=   279. E= -.76876514E+03 F= -.76763745E+03 E0= -.76763745E+03  EK= 0.32077E+01 SP= -.50E+01 SK= 0.70E+00 mag=     -0.000
       N       E                     dE             d eps       ncg     rms          rms(c)
DAV:   1    -0.764400105035E+03   -0.13274E+00   -0.16588E-01  1184   0.153E+00    0.180E-01
DAV:   2    -0.764404928768E+03   -0.48237E-02   -0.50362E-02  1216   0.422E-01    0.127E-01
DAV:   3    -0.764404802927E+03    0.12584E-03   -0.64962E-04  1376   0.528E-02    0.878E-02
DAV:   4    -0.764404744079E+03    0.58848E-04   -0.33753E-04  1224   0.388E-02    0.365E-02
DAV:   5    -0.764404753435E+03   -0.93562E-05   -0.64382E-05  1208   0.163E-02    0.210E-02
DAV:   6    -0.764404761816E+03   -0.83815E-05   -0.11768E-05  1000   0.695E-03
   41 T=   264. E= -.76876386E+03 F= -.76777555E+03 E0= -.76777555E+03  EK= 0.30378E+01 SP= -.47E+01 SK= 0.67E+00 mag=     -0.000
       N       E                     dE             d eps       ncg     rms          rms(c)
DAV:   1    -0.764621205544E+03   -0.21645E+00   -0.97968E-02  1184   0.137E+00    0.172E-01
DAV:   2    -0.764624841671E+03   -0.36361E-02   -0.38639E-02  1200   0.365E-01    0.112E-01
DAV:   3    -0.764624774734E+03    0.66937E-04   -0.53717E-04  1408   0.462E-02    0.766E-02
DAV:   4    -0.764624745435E+03    0.29299E-04   -0.20969E-04  1256   0.300E-02    0.360E-02
DAV:   5    -0.764624753821E+03   -0.83861E-05   -0.41391E-05  1120   0.130E-02    0.200E-02
DAV:   6    -0.764624758690E+03   -0.48688E-05   -0.90535E-06   984   0.637E-03
   42 T=   258. E= -.76876456E+03 F= -.76799620E+03 E0= -.76799620E+03  EK= 0.29690E+01 SP= -.44E+01 SK= 0.62E+00 mag=     -0.000
       N       E                     dE             d eps       ncg     rms          rms(c)
DAV:   1    -0.764926423127E+03   -0.30167E+00   -0.60785E-02  1168   0.127E+00    0.160E-01
DAV:   2    -0.764929132554E+03   -0.27094E-02   -0.28844E-02  1232   0.313E-01    0.102E-01
DAV:   3    -0.764929100773E+03    0.31781E-04   -0.41528E-04  1408   0.387E-02    0.691E-02
DAV:   4    -0.764929089744E+03    0.11029E-04   -0.12655E-04  1208   0.234E-02    0.352E-02
DAV:   5    -0.764929105269E+03   -0.15525E-04   -0.31214E-05  1128   0.113E-02    0.185E-02
DAV:   6    -0.764929115634E+03   -0.10365E-04   -0.92675E-06   976   0.612E-03    0.135E-02
DAV:   7    -0.764929124700E+03   -0.90659E-05   -0.19831E-06   848   0.306E-03
   43 T=   260. E= -.76876715E+03 F= -.76830115E+03 E0= -.76830115E+03  EK= 0.29948E+01 SP= -.40E+01 SK= 0.58E+00 mag=     -0.000
       N       E                     dE             d eps       ncg     rms          rms(c)
DAV:   1    -0.765287533025E+03   -0.35842E+00   -0.40562E-02  1264   0.123E+00    0.139E-01
DAV:   2    -0.765289562025E+03   -0.20290E-02   -0.21328E-02  1208   0.267E-01    0.854E-02
DAV:   3    -0.765289537827E+03    0.24198E-04   -0.33629E-04  1440   0.338E-02    0.560E-02
DAV:   4    -0.765289526611E+03    0.11215E-04   -0.74318E-05  1176   0.171E-02    0.315E-02
DAV:   5    -0.765289534160E+03   -0.75482E-05   -0.19066E-05  1024   0.899E-03    0.171E-02
DAV:   6    -0.765289540072E+03   -0.59125E-05   -0.67304E-06   952   0.507E-03
   44 T=   268. E= -.76877235E+03 F= -.76866210E+03 E0= -.76866210E+03  EK= 0.30788E+01 SP= -.37E+01 SK= 0.54E+00 mag=     -0.000
       N       E                     dE             d eps       ncg     rms          rms(c)
DAV:   1    -0.765636940758E+03   -0.34741E+00   -0.38313E-02  1240   0.127E+00    0.122E-01
DAV:   2    -0.765639192949E+03   -0.22522E-02   -0.23295E-02  1208   0.269E-01    0.973E-02
DAV:   3    -0.765639144571E+03    0.48378E-04   -0.30484E-04  1432   0.327E-02    0.674E-02
DAV:   4    -0.765639121609E+03    0.22962E-04   -0.10319E-04  1136   0.189E-02    0.375E-02
DAV:   5    -0.765639125982E+03   -0.43732E-05   -0.22766E-05  1064   0.964E-03    0.206E-02
DAV:   6    -0.765639131227E+03   -0.52451E-05   -0.66075E-06   944   0.526E-03
   45 T=   274. E= -.76878020E+03 F= -.76901226E+03 E0= -.76901226E+03  EK= 0.31506E+01 SP= -.34E+01 SK= 0.51E+00 mag=     -0.000
       N       E                     dE             d eps       ncg     rms          rms(c)
DAV:   1    -0.765879109567E+03   -0.23998E+00   -0.50054E-02  1248   0.134E+00    0.143E-01
DAV:   2    -0.765882387559E+03   -0.32780E-02   -0.33576E-02  1192   0.333E-01    0.110E-01
DAV:   3    -0.765882304035E+03    0.83523E-04   -0.34012E-04  1416   0.381E-02    0.782E-02
DAV:   4    -0.765882258764E+03    0.45271E-04   -0.24129E-04  1208   0.297E-02    0.360E-02
DAV:   5    -0.765882263497E+03   -0.47327E-05   -0.32819E-05  1128   0.111E-02    0.258E-02
DAV:   6    -0.765882270019E+03   -0.65228E-05   -0.62315E-06   840   0.523E-03
   46 T=   271. E= -.76878617E+03 F= -.76925604E+03 E0= -.76925604E+03  EK= 0.31229E+01 SP= -.31E+01 SK= 0.49E+00 mag=     -0.000
       N       E                     dE             d eps       ncg     rms          rms(c)
DAV:   1    -0.765964523569E+03   -0.82260E-01   -0.11130E-01  1216   0.143E+00    0.168E-01
DAV:   2    -0.765968776297E+03   -0.42527E-02   -0.44310E-02  1184   0.398E-01    0.124E-01
DAV:   3    -0.765968665354E+03    0.11094E-03   -0.53193E-04  1376   0.476E-02    0.880E-02
DAV:   4    -0.765968592608E+03    0.72746E-04   -0.38031E-04  1232   0.406E-02    0.366E-02
DAV:   5    -0.765968594744E+03   -0.21365E-05   -0.67561E-05  1168   0.160E-02    0.240E-02
DAV:   6    -0.765968596321E+03   -0.15765E-05   -0.15508E-05  1080   0.783E-03
   47 T=   258. E= -.76878260E+03 F= -.76934306E+03 E0= -.76934306E+03  EK= 0.29632E+01 SP= -.29E+01 SK= 0.45E+00 mag=     -0.000
       N       E                     dE             d eps       ncg     rms          rms(c)
DAV:   1    -0.765963040214E+03    0.55545E-02   -0.19207E-01  1200   0.148E+00    0.229E-01
DAV:   2    -0.765967027247E+03   -0.39870E-02   -0.45580E-02  1200   0.414E-01    0.142E-01
DAV:   3    -0.765966896512E+03    0.13074E-03   -0.91931E-04  1360   0.586E-02    0.935E-02
DAV:   4    -0.765966857182E+03    0.39330E-04   -0.43755E-04  1248   0.418E-02    0.425E-02
DAV:   5    -0.765966855874E+03    0.13075E-05   -0.52808E-05  1224   0.161E-02    0.240E-02
DAV:   6    -0.765966857641E+03   -0.17665E-05   -0.29217E-05  1120   0.996E-03
   48 T=   238. E= -.76877631E+03 F= -.76934197E+03 E0= -.76934197E+03  EK= 0.27436E+01 SP= -.26E+01 SK= 0.41E+00 mag=     -0.000
       N       E                     dE             d eps       ncg     rms          rms(c)
DAV:   1    -0.765961739006E+03    0.51169E-02   -0.64302E-02  1208   0.123E+00    0.151E-01
DAV:   2    -0.765964324578E+03   -0.25856E-02   -0.26804E-02  1208   0.310E-01    0.106E-01
DAV:   3    -0.765964269323E+03    0.55255E-04   -0.32336E-04  1384   0.353E-02    0.744E-02
DAV:   4    -0.765964258526E+03    0.10797E-04   -0.24101E-04  1208   0.310E-02    0.324E-02
DAV:   5    -0.765964267568E+03   -0.90427E-05   -0.38427E-05  1224   0.124E-02    0.220E-02
DAV:   6    -0.765964273503E+03   -0.59347E-05   -0.12901E-05  1088   0.735E-03
   49 T=   221. E= -.76877759E+03 F= -.76933997E+03 E0= -.76933997E+03  EK= 0.25452E+01 SP= -.23E+01 SK= 0.35E+00 mag=     -0.000
       N       E                     dE             d eps       ncg     rms          rms(c)
DAV:   1    -0.765944047235E+03    0.20220E-01   -0.40798E-02  1224   0.116E+00    0.122E-01
DAV:   2    -0.765945987982E+03   -0.19407E-02   -0.20039E-02  1168   0.271E-01    0.829E-02
DAV:   3    -0.765945958376E+03    0.29605E-04   -0.21002E-04  1344   0.282E-02    0.583E-02
DAV:   4    -0.765945956385E+03    0.19913E-05   -0.94773E-05  1192   0.218E-02    0.278E-02
DAV:   5    -0.765945966005E+03   -0.96200E-05   -0.23444E-05  1056   0.963E-03    0.169E-02
DAV:   6    -0.765945969376E+03   -0.33709E-05   -0.51570E-06   872   0.488E-03
   50 T=   205. E= -.76877988E+03 F= -.76932220E+03 E0= -.76932220E+03  EK= 0.23600E+01 SP= -.21E+01 SK= 0.28E+00 mag=     -0.000
       N       E                     dE             d eps       ncg     rms          rms(c)
DAV:   1    -0.765875920336E+03    0.70046E-01   -0.83437E-02  1200   0.122E+00    0.144E-01
DAV:   2    -0.765878985083E+03   -0.30647E-02   -0.31679E-02  1160   0.343E-01    0.107E-01
DAV:   3    -0.765878915879E+03    0.69205E-04   -0.34487E-04  1384   0.384E-02    0.754E-02
DAV:   4    -0.765878890680E+03    0.25198E-04   -0.18382E-04  1216   0.304E-02    0.312E-02
DAV:   5    -0.765878901297E+03   -0.10617E-04   -0.41574E-05  1128   0.127E-02    0.186E-02
DAV:   6    -0.765878907317E+03   -0.60197E-05   -0.55768E-06   880   0.513E-03
   51 T=   188. E= -.76877693E+03 F= -.76925570E+03 E0= -.76925570E+03  EK= 0.21616E+01 SP= -.19E+01 SK= 0.21E+00 mag=      0.000
       N       E                     dE             d eps       ncg     rms          rms(c)
DAV:   1    -0.765794410166E+03    0.84491E-01   -0.10089E-01  1216   0.119E+00    0.143E-01
DAV:   2    -0.765797361928E+03   -0.29518E-02   -0.30835E-02  1160   0.334E-01    0.103E-01
DAV:   3    -0.765797289607E+03    0.72321E-04   -0.36814E-04  1416   0.406E-02    0.713E-02
DAV:   4    -0.765797249568E+03    0.40039E-04   -0.20263E-04  1208   0.311E-02    0.291E-02
DAV:   5    -0.765797255500E+03   -0.59319E-05   -0.40529E-05  1096   0.127E-02    0.174E-02
DAV:   6    -0.765797259375E+03   -0.38753E-05   -0.67711E-06   920   0.540E-03
   52 T=   172. E= -.76877195E+03 F= -.76917470E+03 E0= -.76917470E+03  EK= 0.19810E+01 SP= -.17E+01 SK= 0.14E+00 mag=      0.000
       N       E                     dE             d eps       ncg     rms          rms(c)
DAV:   1    -0.765763938748E+03    0.33317E-01   -0.67672E-02  1232   0.106E+00    0.140E-01
DAV:   2    -0.765765868522E+03   -0.19298E-02   -0.20974E-02  1232   0.273E-01    0.848E-02
DAV:   3    -0.765765837521E+03    0.31001E-04   -0.33415E-04  1376   0.359E-02    0.563E-02
DAV:   4    -0.765765823252E+03    0.14269E-04   -0.10139E-04  1240   0.208E-02    0.293E-02
DAV:   5    -0.765765825226E+03   -0.19733E-05   -0.19177E-05  1000   0.912E-03    0.163E-02
DAV:   6    -0.765765826385E+03   -0.11599E-05   -0.60188E-06   912   0.504E-03
   53 T=   163. E= -.76876841E+03 F= -.76914404E+03 E0= -.76914404E+03  EK= 0.18769E+01 SP= -.16E+01 SK= 0.81E-01 mag=      0.000
       N       E                     dE             d eps       ncg     rms          rms(c)
DAV:   1    -0.765824824273E+03   -0.58999E-01   -0.38495E-02  1192   0.978E-01    0.122E-01
DAV:   2    -0.765826204048E+03   -0.13798E-02   -0.14730E-02  1240   0.230E-01    0.777E-02
DAV:   3    -0.765826182266E+03    0.21782E-04   -0.23108E-04  1408   0.291E-02    0.521E-02
DAV:   4    -0.765826180551E+03    0.17150E-05   -0.67731E-05  1144   0.166E-02    0.287E-02
DAV:   5    -0.765826190525E+03   -0.99741E-05   -0.12786E-05   944   0.774E-03    0.160E-02
DAV:   6    -0.765826199123E+03   -0.85977E-05   -0.53697E-06   904   0.483E-03
   54 T=   164. E= -.76876885E+03 F= -.76920533E+03 E0= -.76920533E+03  EK= 0.18841E+01 SP= -.15E+01 SK= 0.36E-01 mag=      0.000
       N       E                     dE             d eps       ncg     rms          rms(c)
DAV:   1    -0.765965671181E+03   -0.13948E+00   -0.20622E-02  1168   0.963E-01    0.102E-01
DAV:   2    -0.765966830574E+03   -0.11594E-02   -0.12050E-02  1200   0.205E-01    0.638E-02
DAV:   3    -0.765966816183E+03    0.14391E-04   -0.14765E-04  1424   0.234E-02    0.440E-02
DAV:   4    -0.765966816251E+03   -0.68416E-07   -0.61859E-05  1136   0.157E-02    0.231E-02
DAV:   5    -0.765966823711E+03   -0.74598E-05   -0.10003E-05   904   0.669E-03    0.155E-02
DAV:   6    -0.765966832154E+03   -0.84431E-05   -0.39441E-06   840   0.410E-03
   55 T=   173. E= -.76877251E+03 F= -.76934704E+03 E0= -.76934704E+03  EK= 0.19890E+01 SP= -.14E+01 SK= 0.10E-01 mag=      0.000
       N       E                     dE             d eps       ncg     rms          rms(c)
DAV:   1    -0.766132661116E+03   -0.16584E+00   -0.26539E-02  1200   0.104E+00    0.123E-01
DAV:   2    -0.766134410265E+03   -0.17491E-02   -0.18477E-02  1224   0.245E-01    0.812E-02
DAV:   3    -0.766134378320E+03    0.31945E-04   -0.23280E-04  1360   0.286E-02    0.566E-02
DAV:   4    -0.766134361874E+03    0.16446E-04   -0.11579E-04  1184   0.214E-02    0.274E-02
DAV:   5    -0.766134367381E+03   -0.55064E-05   -0.22119E-05  1112   0.916E-03    0.177E-02
DAV:   6    -0.766134371368E+03   -0.39873E-05   -0.56488E-06   928   0.474E-03
   56 T=   186. E= -.76877690E+03 F= -.76951580E+03 E0= -.76951580E+03  EK= 0.21399E+01 SP= -.14E+01 SK= 0.29E-03 mag=      0.000
       N       E                     dE             d eps       ncg     rms          rms(c)
DAV:   1    -0.766268594937E+03   -0.13423E+00   -0.46909E-02  1200   0.112E+00    0.142E-01
DAV:   2    -0.766271194748E+03   -0.25998E-02   -0.27325E-02  1200   0.299E-01    0.982E-02
DAV:   3    -0.766271140567E+03    0.54181E-04   -0.36695E-04  1416   0.371E-02    0.684E-02
DAV:   4    -0.766271109226E+03    0.31341E-04   -0.16469E-04  1208   0.267E-02    0.328E-02
DAV:   5    -0.766271116386E+03   -0.71603E-05   -0.38396E-05  1160   0.121E-02    0.193E-02
DAV:   6    -0.766271120417E+03   -0.40307E-05   -0.67716E-06   968   0.534E-03
   57 T=   198. E= -.76877945E+03 F= -.76965388E+03 E0= -.76965388E+03  EK= 0.22816E+01 SP= -.14E+01 SK= 0.33E-02 mag=      0.000
       N       E                     dE             d eps       ncg     rms          rms(c)
DAV:   1    -0.766350616242E+03   -0.79500E-01   -0.79569E-02  1200   0.120E+00    0.146E-01
DAV:   2    -0.766353582048E+03   -0.29658E-02   -0.31168E-02  1184   0.330E-01    0.999E-02
DAV:   3    -0.766353520366E+03    0.61682E-04   -0.41649E-04  1408   0.413E-02    0.694E-02
DAV:   4    -0.766353478182E+03    0.42183E-04   -0.16619E-04  1224   0.297E-02    0.316E-02
DAV:   5    -0.766353481726E+03   -0.35438E-05   -0.48937E-05  1176   0.135E-02    0.180E-02
DAV:   6    -0.766353483214E+03   -0.14876E-05   -0.52436E-06   912   0.498E-03
   58 T=   208. E= -.76877776E+03 F= -.76973758E+03 E0= -.76973758E+03  EK= 0.23930E+01 SP= -.14E+01 SK= 0.15E-01 mag=      0.000
       N       E                     dE             d eps       ncg     rms          rms(c)
DAV:   1    -0.766414050803E+03   -0.60569E-01   -0.11354E-01  1200   0.125E+00    0.184E-01
DAV:   2    -0.766416961922E+03   -0.29111E-02   -0.32918E-02  1208   0.344E-01    0.119E-01
DAV:   3    -0.766416877281E+03    0.84640E-04   -0.61794E-04  1360   0.462E-02    0.778E-02
DAV:   4    -0.766416844665E+03    0.32617E-04   -0.16820E-04  1208   0.287E-02    0.352E-02
DAV:   5    -0.766416852299E+03   -0.76341E-05   -0.43575E-05  1080   0.131E-02    0.172E-02
DAV:   6    -0.766416856411E+03   -0.41124E-05   -0.74443E-06  1000   0.555E-03
   59 T=   218. E= -.76877526E+03 F= -.76980221E+03 E0= -.76980221E+03  EK= 0.25059E+01 SP= -.15E+01 SK= 0.34E-01 mag=      0.000
       N       E                     dE             d eps       ncg     rms          rms(c)
DAV:   1    -0.766501272387E+03   -0.84420E-01   -0.52335E-02  1200   0.117E+00    0.155E-01
DAV:   2    -0.766503695880E+03   -0.24235E-02   -0.26214E-02  1192   0.298E-01    0.105E-01
DAV:   3    -0.766503645652E+03    0.50227E-04   -0.41983E-04  1408   0.365E-02    0.716E-02
DAV:   4    -0.766503631166E+03    0.14487E-04   -0.14497E-04  1200   0.251E-02    0.359E-02
DAV:   5    -0.766503642600E+03   -0.11435E-04   -0.30272E-05  1064   0.116E-02    0.192E-02
DAV:   6    -0.766503652338E+03   -0.97381E-05   -0.10495E-05   992   0.622E-03
   60 T=   231. E= -.76877848E+03 F= -.76989006E+03 E0= -.76989006E+03  EK= 0.26563E+01 SP= -.16E+01 SK= 0.55E-01 mag=      0.000
       N       E                     dE             d eps       ncg     rms          rms(c)
DAV:   1    -0.766576571990E+03   -0.72929E-01   -0.30707E-02  1200   0.117E+00    0.130E-01
DAV:   2    -0.766578595475E+03   -0.20235E-02   -0.21127E-02  1160   0.274E-01    0.846E-02
DAV:   3    -0.766578563929E+03    0.31546E-04   -0.23184E-04  1384   0.298E-02    0.592E-02
DAV:   4    -0.766578549238E+03    0.14690E-04   -0.10866E-04  1184   0.225E-02    0.298E-02
DAV:   5    -0.766578556504E+03   -0.72651E-05   -0.24306E-05  1024   0.987E-03    0.185E-02
DAV:   6    -0.766578561315E+03   -0.48117E-05   -0.65652E-06   936   0.518E-03
   61 T=   244. E= -.76878291E+03 F= -.76996581E+03 E0= -.76996581E+03  EK= 0.28127E+01 SP= -.17E+01 SK= 0.78E-01 mag=      0.000
       N       E                     dE             d eps       ncg     rms          rms(c)
DAV:   1    -0.766580713240E+03   -0.21567E-02   -0.78995E-02  1200   0.129E+00    0.168E-01
DAV:   2    -0.766583987825E+03   -0.32746E-02   -0.34553E-02  1192   0.358E-01    0.114E-01
DAV:   3    -0.766583921793E+03    0.66032E-04   -0.42438E-04  1360   0.409E-02    0.799E-02
DAV:   4    -0.766583888139E+03    0.33654E-04   -0.21492E-04  1208   0.327E-02    0.353E-02
DAV:   5    -0.766583893724E+03   -0.55853E-05   -0.49379E-05  1144   0.139E-02    0.212E-02
DAV:   6    -0.766583894936E+03   -0.12116E-05   -0.11518E-05  1040   0.694E-03
   62 T=   254. E= -.76878224E+03 F= -.76997181E+03 E0= -.76997181E+03  EK= 0.29216E+01 SP= -.18E+01 SK= 0.98E-01 mag=      0.000
       N       E                     dE             d eps       ncg     rms          rms(c)
DAV:   1    -0.766520464862E+03    0.63429E-01   -0.10589E-01  1200   0.132E+00    0.174E-01
DAV:   2    -0.766523738019E+03   -0.32732E-02   -0.35036E-02  1184   0.358E-01    0.113E-01
DAV:   3    -0.766523669820E+03    0.68199E-04   -0.52795E-04  1408   0.450E-02    0.773E-02
DAV:   4    -0.766523630274E+03    0.39546E-04   -0.19237E-04  1224   0.316E-02    0.354E-02
DAV:   5    -0.766523635502E+03   -0.52277E-05   -0.53024E-05  1128   0.142E-02    0.196E-02
DAV:   6    -0.766523636630E+03   -0.11276E-05   -0.98843E-06  1032   0.640E-03
   63 T=   259. E= -.76878000E+03 F= -.76991212E+03 E0= -.76991212E+03  EK= 0.29805E+01 SP= -.20E+01 SK= 0.12E+00 mag=      0.000
       N       E                     dE             d eps       ncg     rms          rms(c)
DAV:   1    -0.766426655096E+03    0.96980E-01   -0.72906E-02  1200   0.125E+00    0.146E-01
DAV:   2    -0.766429245798E+03   -0.25907E-02   -0.27342E-02  1184   0.313E-01    0.873E-02
DAV:   3    -0.766429218997E+03    0.26801E-04   -0.34805E-04  1392   0.367E-02    0.607E-02
DAV:   4    -0.766429195641E+03    0.23356E-04   -0.10453E-04  1256   0.247E-02    0.304E-02
DAV:   5    -0.766429198898E+03   -0.32575E-05   -0.36452E-05  1056   0.119E-02    0.176E-02
DAV:   6    -0.766429200214E+03   -0.13159E-05   -0.50497E-06   904   0.481E-03
   64 T=   262. E= -.76877898E+03 F= -.76981819E+03 E0= -.76981819E+03  EK= 0.30159E+01 SP= -.21E+01 SK= 0.14E+00 mag=      0.000
       N       E                     dE             d eps       ncg     rms          rms(c)
DAV:   1    -0.766316365888E+03    0.11283E+00   -0.63870E-02  1200   0.123E+00    0.148E-01
DAV:   2    -0.766318508154E+03   -0.21423E-02   -0.23125E-02  1200   0.286E-01    0.884E-02
DAV:   3    -0.766318495316E+03    0.12839E-04   -0.33963E-04  1392   0.341E-02    0.616E-02
DAV:   4    -0.766318483668E+03    0.11648E-04   -0.84086E-05  1216   0.219E-02    0.335E-02
DAV:   5    -0.766318494170E+03   -0.10503E-04   -0.35047E-05  1144   0.118E-02    0.180E-02
DAV:   6    -0.766318498181E+03   -0.40108E-05   -0.74528E-06  1000   0.555E-03
   65 T=   265. E= -.76877860E+03 F= -.76970796E+03 E0= -.76970796E+03  EK= 0.30452E+01 SP= -.23E+01 SK= 0.16E+00 mag=      0.000
       N       E                     dE             d eps       ncg     rms          rms(c)
DAV:   1    -0.766200331160E+03    0.11816E+00   -0.63458E-02  1200   0.122E+00    0.149E-01
DAV:   2    -0.766202403843E+03   -0.20727E-02   -0.22327E-02  1224   0.278E-01    0.898E-02
DAV:   3    -0.766202382467E+03    0.21376E-04   -0.37178E-04  1392   0.344E-02    0.615E-02
DAV:   4    -0.766202368224E+03    0.14243E-04   -0.85771E-05  1208   0.212E-02    0.342E-02
DAV:   5    -0.766202377133E+03   -0.89098E-05   -0.33285E-05  1152   0.116E-02    0.182E-02
DAV:   6    -0.766202381694E+03   -0.45609E-05   -0.93821E-06  1008   0.601E-03
   66 T=   268. E= -.76877776E+03 F= -.76959229E+03 E0= -.76959229E+03  EK= 0.30798E+01 SP= -.24E+01 SK= 0.18E+00 mag=     -0.000
       N       E                     dE             d eps       ncg     rms          rms(c)
DAV:   1    -0.766083114526E+03    0.11926E+00   -0.61269E-02  1176   0.122E+00    0.136E-01
DAV:   2    -0.766085490005E+03   -0.23755E-02   -0.24693E-02  1176   0.280E-01    0.944E-02
DAV:   3    -0.766085447687E+03    0.42318E-04   -0.34213E-04  1408   0.330E-02    0.656E-02
DAV:   4    -0.766085421587E+03    0.26100E-04   -0.10591E-04  1216   0.208E-02    0.351E-02
DAV:   5    -0.766085426517E+03   -0.49299E-05   -0.30588E-05  1104   0.108E-02    0.193E-02
DAV:   6    -0.766085429911E+03   -0.33936E-05   -0.73947E-06   992   0.549E-03
   67 T=   271. E= -.76877913E+03 F= -.76947578E+03 E0= -.76947578E+03  EK= 0.31214E+01 SP= -.26E+01 SK= 0.19E+00 mag=     -0.000
       N       E                     dE             d eps       ncg     rms          rms(c)
DAV:   1    -0.765941009744E+03    0.14442E+00   -0.70927E-02  1184   0.127E+00    0.141E-01
DAV:   2    -0.765944113534E+03   -0.31038E-02   -0.31832E-02  1192   0.316E-01    0.107E-01
DAV:   3    -0.765944049549E+03    0.63985E-04   -0.35363E-04  1392   0.352E-02    0.759E-02
DAV:   4    -0.765944017296E+03    0.32253E-04   -0.19072E-04  1224   0.258E-02    0.347E-02
DAV:   5    -0.765944028845E+03   -0.11549E-04   -0.36249E-05  1168   0.110E-02    0.218E-02
DAV:   6    -0.765944036729E+03   -0.78844E-05   -0.43367E-06   864   0.455E-03
   68 T=   274. E= -.76878064E+03 F= -.76933485E+03 E0= -.76933485E+03  EK= 0.31477E+01 SP= -.28E+01 SK= 0.21E+00 mag=     -0.000
       N       E                     dE             d eps       ncg     rms          rms(c)
[...]
DAV:   3    -0.766125721474E+03    0.91581E-04   -0.60405E-04  1432   0.446E-02    0.995E-02
DAV:   4    -0.766125686588E+03    0.34886E-04   -0.31332E-04  1232   0.355E-02    0.370E-02
DAV:   5    -0.766125697288E+03   -0.10699E-04   -0.65039E-05  1240   0.144E-02    0.202E-02
DAV:   6    -0.766125700254E+03   -0.29661E-05   -0.11702E-05  1056   0.640E-03
 4975 T=   381. E= -.76900779E+03 F= -.76930081E+03 E0= -.76930081E+03  EK= 0.43789E+01 SP= -.41E+01 SK= 0.15E-02 mag=      0.000
       N       E                     dE             d eps       ncg     rms          rms(c)
DAV:   1    -0.766089918842E+03    0.35778E-01   -0.97820E-02  1208   0.158E+00    0.182E-01
DAV:   2    -0.766094530804E+03   -0.46120E-02   -0.48111E-02  1192   0.379E-01    0.122E-01
DAV:   3    -0.766094480846E+03    0.49957E-04   -0.60324E-04  1440   0.439E-02    0.838E-02
DAV:   4    -0.766094472706E+03    0.81408E-05   -0.17934E-04  1264   0.262E-02    0.383E-02
DAV:   5    -0.766094485052E+03   -0.12346E-04   -0.43108E-05  1192   0.120E-02    0.181E-02
DAV:   6    -0.766094488831E+03   -0.37791E-05   -0.91458E-06  1032   0.549E-03
 4976 T=   375. E= -.76900546E+03 F= -.76927016E+03 E0= -.76927016E+03  EK= 0.43162E+01 SP= -.41E+01 SK= 0.85E-02 mag=      0.000
       N       E                     dE             d eps       ncg     rms          rms(c)
DAV:   1    -0.766012141722E+03    0.82343E-01   -0.11096E-01  1208   0.155E+00    0.183E-01
DAV:   2    -0.766016332236E+03   -0.41905E-02   -0.43664E-02  1192   0.363E-01    0.128E-01
DAV:   3    -0.766016261158E+03    0.71078E-04   -0.64167E-04  1472   0.452E-02    0.848E-02
DAV:   4    -0.766016260533E+03    0.62441E-06   -0.16837E-04  1272   0.240E-02    0.419E-02
DAV:   5    -0.766016278672E+03   -0.18139E-04   -0.38521E-05  1144   0.121E-02    0.180E-02
DAV:   6    -0.766016286191E+03   -0.75187E-05   -0.12557E-05  1120   0.607E-03
 4977 T=   364. E= -.76900111E+03 F= -.76919219E+03 E0= -.76919219E+03  EK= 0.41827E+01 SP= -.40E+01 SK= 0.20E-01 mag=      0.000
       N       E                     dE             d eps       ncg     rms          rms(c)
DAV:   1    -0.765944481685E+03    0.71797E-01   -0.94070E-02  1256   0.149E+00    0.162E-01
DAV:   2    -0.765948218449E+03   -0.37368E-02   -0.38116E-02  1224   0.341E-01    0.128E-01
DAV:   3    -0.765948112339E+03    0.10611E-03   -0.49509E-04  1480   0.418E-02    0.862E-02
DAV:   4    -0.765948093235E+03    0.19105E-04   -0.29341E-04  1232   0.284E-02    0.387E-02
DAV:   5    -0.765948104959E+03   -0.11724E-04   -0.35157E-05  1160   0.115E-02    0.228E-02
DAV:   6    -0.765948115074E+03   -0.10115E-04   -0.10800E-05  1080   0.606E-03    0.124E-02
DAV:   7    -0.765948118907E+03   -0.38329E-05   -0.19953E-06   872   0.307E-03
 4978 T=   351. E= -.76899993E+03 F= -.76912391E+03 E0= -.76912391E+03  EK= 0.40363E+01 SP= -.39E+01 SK= 0.32E-01 mag=     -0.000
       N       E                     dE             d eps       ncg     rms          rms(c)
DAV:   1    -0.765896062692E+03    0.52052E-01   -0.70362E-02  1216   0.146E+00    0.149E-01
DAV:   2    -0.765899412343E+03   -0.33497E-02   -0.34628E-02  1208   0.326E-01    0.110E-01
DAV:   3    -0.765899329220E+03    0.83123E-04   -0.43489E-04  1520   0.391E-02    0.763E-02
DAV:   4    -0.765899301188E+03    0.28032E-04   -0.27511E-04  1232   0.270E-02    0.357E-02
DAV:   5    -0.765899305570E+03   -0.43826E-05   -0.30066E-05  1144   0.103E-02    0.242E-02
DAV:   6    -0.765899309907E+03   -0.43363E-05   -0.10448E-05  1056   0.598E-03
 4979 T=   338. E= -.76900247E+03 F= -.76907477E+03 E0= -.76907477E+03  EK= 0.38916E+01 SP= -.39E+01 SK= 0.44E-01 mag=     -0.000
       N       E                     dE             d eps       ncg     rms          rms(c)
DAV:   1    -0.765823910206E+03    0.75395E-01   -0.82958E-02  1160   0.146E+00    0.171E-01
DAV:   2    -0.765827750436E+03   -0.38402E-02   -0.40999E-02  1208   0.365E-01    0.121E-01
DAV:   3    -0.765827669452E+03    0.80985E-04   -0.55254E-04  1424   0.436E-02    0.862E-02
DAV:   4    -0.765827631942E+03    0.37510E-04   -0.24353E-04  1240   0.287E-02    0.442E-02
DAV:   5    -0.765827640628E+03   -0.86861E-05   -0.43604E-05  1192   0.130E-02    0.240E-02
DAV:   6    -0.765827648374E+03   -0.77462E-05   -0.12352E-05  1088   0.657E-03
 4980 T=   323. E= -.76900253E+03 F= -.76900269E+03 E0= -.76900269E+03  EK= 0.37181E+01 SP= -.38E+01 SK= 0.53E-01 mag=     -0.000
       N       E                     dE             d eps       ncg     rms          rms(c)
DAV:   1    -0.765720813750E+03    0.10683E+00   -0.12687E-01  1184   0.148E+00    0.209E-01
DAV:   2    -0.765725068266E+03   -0.42545E-02   -0.48020E-02  1208   0.399E-01    0.139E-01
DAV:   3    -0.765724962268E+03    0.10600E-03   -0.83232E-04  1392   0.526E-02    0.955E-02
DAV:   4    -0.765724909682E+03    0.52587E-04   -0.36740E-04  1232   0.362E-02    0.437E-02
DAV:   5    -0.765724912678E+03   -0.29964E-05   -0.66720E-05  1232   0.164E-02    0.220E-02
DAV:   6    -0.765724916199E+03   -0.35213E-05   -0.23676E-05  1144   0.812E-03
 4981 T=   306. E= -.76899763E+03 F= -.76889954E+03 E0= -.76889954E+03  EK= 0.35166E+01 SP= -.37E+01 SK= 0.58E-01 mag=     -0.000
       N       E                     dE             d eps       ncg     rms          rms(c)
DAV:   1    -0.765648270352E+03    0.76642E-01   -0.12394E-01  1216   0.141E+00    0.211E-01
DAV:   2    -0.765651654710E+03   -0.33844E-02   -0.39806E-02  1240   0.358E-01    0.134E-01
DAV:   3    -0.765651572822E+03    0.81888E-04   -0.81284E-04  1408   0.483E-02    0.885E-02
DAV:   4    -0.765651553352E+03    0.19470E-04   -0.27787E-04  1216   0.301E-02    0.396E-02
DAV:   5    -0.765651556920E+03   -0.35678E-05   -0.44363E-05  1200   0.133E-02    0.188E-02
DAV:   6    -0.765651561873E+03   -0.49527E-05   -0.21010E-05  1152   0.741E-03
 4982 T=   291. E= -.76899474E+03 F= -.76882577E+03 E0= -.76882577E+03  EK= 0.33461E+01 SP= -.36E+01 SK= 0.57E-01 mag=     -0.000
       N       E                     dE             d eps       ncg     rms          rms(c)
DAV:   1    -0.765639408638E+03    0.12148E-01   -0.71099E-02  1192   0.134E+00    0.155E-01
DAV:   2    -0.765642509562E+03   -0.31009E-02   -0.32736E-02  1232   0.319E-01    0.110E-01
DAV:   3    -0.765642469015E+03    0.40548E-04   -0.50481E-04  1400   0.376E-02    0.755E-02
DAV:   4    -0.765642469297E+03   -0.28194E-06   -0.12721E-04  1184   0.207E-02    0.378E-02
DAV:   5    -0.765642479139E+03   -0.98428E-05   -0.23404E-05  1152   0.973E-03    0.185E-02
DAV:   6    -0.765642485925E+03   -0.67853E-05   -0.75134E-06  1048   0.503E-03
 4983 T=   282. E= -.76899832E+03 F= -.76881617E+03 E0= -.76881617E+03  EK= 0.32397E+01 SP= -.35E+01 SK= 0.53E-01 mag=      0.000
       N       E                     dE             d eps       ncg     rms          rms(c)
DAV:   1    -0.765647286432E+03   -0.48073E-02   -0.62876E-02  1192   0.135E+00    0.149E-01
DAV:   2    -0.765650635737E+03   -0.33493E-02   -0.34560E-02  1224   0.335E-01    0.106E-01
DAV:   3    -0.765650593081E+03    0.42656E-04   -0.42581E-04  1440   0.369E-02    0.729E-02
DAV:   4    -0.765650579614E+03    0.13466E-04   -0.14694E-04  1240   0.245E-02    0.315E-02
DAV:   5    -0.765650589189E+03   -0.95750E-05   -0.31439E-05  1184   0.105E-02    0.180E-02
DAV:   6    -0.765650594090E+03   -0.49003E-05   -0.50164E-06   904   0.458E-03
 4984 T=   275. E= -.76900115E+03 F= -.76882351E+03 E0= -.76882351E+03  EK= 0.31586E+01 SP= -.34E+01 SK= 0.46E-01 mag=      0.000
       N       E                     dE             d eps       ncg     rms          rms(c)
DAV:   1    -0.765632962861E+03    0.17626E-01   -0.97680E-02  1200   0.141E+00    0.171E-01
DAV:   2    -0.765637315825E+03   -0.43530E-02   -0.45131E-02  1216   0.382E-01    0.127E-01
DAV:   3    -0.765637225372E+03    0.90452E-04   -0.53047E-04  1432   0.433E-02    0.879E-02
DAV:   4    -0.765637171928E+03    0.53445E-04   -0.29332E-04  1248   0.339E-02    0.308E-02
DAV:   5    -0.765637181410E+03   -0.94822E-05   -0.58816E-05  1200   0.142E-02    0.187E-02
DAV:   6    -0.765637185673E+03   -0.42629E-05   -0.73955E-06   936   0.549E-03
 4985 T=   267. E= -.76899961E+03 F= -.76880906E+03 E0= -.76880906E+03  EK= 0.30687E+01 SP= -.33E+01 SK= 0.38E-01 mag=      0.000
       N       E                     dE             d eps       ncg     rms          rms(c)
DAV:   1    -0.765616758084E+03    0.20423E-01   -0.86288E-02  1224   0.139E+00    0.174E-01
DAV:   2    -0.765620673010E+03   -0.39149E-02   -0.41130E-02  1224   0.364E-01    0.118E-01
DAV:   3    -0.765620607155E+03    0.65855E-04   -0.53439E-04  1392   0.434E-02    0.812E-02
DAV:   4    -0.765620563958E+03    0.43196E-04   -0.22059E-04  1232   0.297E-02    0.343E-02
DAV:   5    -0.765620568120E+03   -0.41615E-05   -0.43585E-05  1216   0.129E-02    0.184E-02
DAV:   6    -0.765620570569E+03   -0.24491E-05   -0.10513E-05  1056   0.589E-03
 4986 T=   260. E= -.76899784E+03 F= -.76879122E+03 E0= -.76879122E+03  EK= 0.29862E+01 SP= -.32E+01 SK= 0.29E-01 mag=     -0.000
       N       E                     dE             d eps       ncg     rms          rms(c)
DAV:   1    -0.765621794098E+03   -0.12260E-02   -0.65269E-02  1192   0.136E+00    0.167E-01
DAV:   2    -0.765625117547E+03   -0.33234E-02   -0.35193E-02  1248   0.338E-01    0.109E-01
DAV:   3    -0.765625080389E+03    0.37158E-04   -0.46751E-04  1400   0.393E-02    0.761E-02
DAV:   4    -0.765625065717E+03    0.14672E-04   -0.16279E-04  1224   0.253E-02    0.366E-02
DAV:   5    -0.765625071875E+03   -0.61579E-05   -0.27442E-05  1168   0.105E-02    0.201E-02
DAV:   6    -0.765625077106E+03   -0.52309E-05   -0.11383E-05  1088   0.600E-03
 4987 T=   255. E= -.76899894E+03 F= -.76879449E+03 E0= -.76879449E+03  EK= 0.29332E+01 SP= -.32E+01 SK= 0.20E-01 mag=     -0.000
       N       E                     dE             d eps       ncg     rms          rms(c)
DAV:   1    -0.765636092271E+03   -0.11020E-01   -0.49095E-02  1192   0.136E+00    0.150E-01
DAV:   2    -0.765639085473E+03   -0.29932E-02   -0.31501E-02  1240   0.314E-01    0.104E-01
DAV:   3    -0.765639036573E+03    0.48901E-04   -0.37830E-04  1424   0.356E-02    0.739E-02
DAV:   4    -0.765639023591E+03    0.12981E-04   -0.20345E-04  1184   0.266E-02    0.341E-02
DAV:   5    -0.765639031207E+03   -0.76158E-05   -0.29830E-05  1168   0.102E-02    0.218E-02
DAV:   6    -0.765639038646E+03   -0.74384E-05   -0.14040E-05  1104   0.683E-03
 4988 T=   252. E= -.76900155E+03 F= -.76880741E+03 E0= -.76880741E+03  EK= 0.28999E+01 SP= -.31E+01 SK= 0.12E-01 mag=     -0.000
       N       E                     dE             d eps       ncg     rms          rms(c)
DAV:   1    -0.765626984022E+03    0.12047E-01   -0.53769E-02  1224   0.141E+00    0.156E-01
DAV:   2    -0.765630413859E+03   -0.34298E-02   -0.36301E-02  1200   0.332E-01    0.117E-01
DAV:   3    -0.765630321660E+03    0.92199E-04   -0.46898E-04  1392   0.405E-02    0.834E-02
DAV:   4    -0.765630282480E+03    0.39180E-04   -0.26366E-04  1240   0.293E-02    0.411E-02
DAV:   5    -0.765630286323E+03   -0.38434E-05   -0.40870E-05  1200   0.116E-02    0.251E-02
DAV:   6    -0.765630289152E+03   -0.28288E-05   -0.15708E-05  1128   0.728E-03
 4989 T=   248. E= -.76900233E+03 F= -.76879806E+03 E0= -.76879806E+03  EK= 0.28582E+01 SP= -.31E+01 SK= 0.55E-02 mag=     -0.000
       N       E                     dE             d eps       ncg     rms          rms(c)
DAV:   1    -0.765582813276E+03    0.47473E-01   -0.70379E-02  1200   0.144E+00    0.171E-01
DAV:   2    -0.765586899663E+03   -0.40864E-02   -0.43469E-02  1192   0.359E-01    0.130E-01
DAV:   3    -0.765586788816E+03    0.11085E-03   -0.63638E-04  1392   0.464E-02    0.914E-02
DAV:   4    -0.765586734470E+03    0.54346E-04   -0.27599E-04  1208   0.303E-02    0.472E-02
DAV:   5    -0.765586735410E+03   -0.93957E-06   -0.56621E-05  1184   0.139E-02    0.248E-02
DAV:   6    -0.765586737402E+03   -0.19919E-05   -0.20150E-05  1136   0.812E-03
 4990 T=   243. E= -.76900165E+03 F= -.76875450E+03 E0= -.76875450E+03  EK= 0.27962E+01 SP= -.30E+01 SK= 0.13E-02 mag=     -0.000
       N       E                     dE             d eps       ncg     rms          rms(c)
DAV:   1    -0.765514150452E+03    0.72585E-01   -0.72666E-02  1168   0.142E+00    0.169E-01
DAV:   2    -0.765518110352E+03   -0.39599E-02   -0.41940E-02  1200   0.361E-01    0.120E-01
DAV:   3    -0.765518027919E+03    0.82434E-04   -0.62245E-04  1392   0.458E-02    0.844E-02
DAV:   4    -0.765517984080E+03    0.43838E-04   -0.21602E-04  1240   0.286E-02    0.441E-02
DAV:   5    -0.765517987979E+03   -0.38987E-05   -0.51321E-05  1168   0.134E-02    0.232E-02
DAV:   6    -0.765517992080E+03   -0.41014E-05   -0.18298E-05  1112   0.799E-03
 4991 T=   237. E= -.76900076E+03 F= -.76868635E+03 E0= -.76868635E+03  EK= 0.27232E+01 SP= -.30E+01 SK= 0.22E-04 mag=     -0.000
       N       E                     dE             d eps       ncg     rms          rms(c)
DAV:   1    -0.765434319253E+03    0.83669E-01   -0.79547E-02  1184   0.140E+00    0.165E-01
DAV:   2    -0.765437980194E+03   -0.36609E-02   -0.38704E-02  1200   0.356E-01    0.113E-01
DAV:   3    -0.765437909980E+03    0.70214E-04   -0.55267E-04  1400   0.431E-02    0.784E-02
DAV:   4    -0.765437872655E+03    0.37326E-04   -0.21733E-04  1256   0.287E-02    0.390E-02
DAV:   5    -0.765437875006E+03   -0.23514E-05   -0.38099E-05  1144   0.116E-02    0.228E-02
DAV:   6    -0.765437877710E+03   -0.27039E-05   -0.14297E-05  1072   0.701E-03
 4992 T=   231. E= -.76899874E+03 F= -.76860729E+03 E0= -.76860729E+03  EK= 0.26546E+01 SP= -.30E+01 SK= 0.25E-02 mag=     -0.000
       N       E                     dE             d eps       ncg     rms          rms(c)
DAV:   1    -0.765370258371E+03    0.67617E-01   -0.99934E-02  1192   0.138E+00    0.182E-01
DAV:   2    -0.765373716519E+03   -0.34581E-02   -0.37893E-02  1232   0.343E-01    0.130E-01
DAV:   3    -0.765373597419E+03    0.11910E-03   -0.65396E-04  1368   0.440E-02    0.867E-02
DAV:   4    -0.765373568195E+03    0.29224E-04   -0.27679E-04  1216   0.291E-02    0.406E-02
DAV:   5    -0.765373571276E+03   -0.30808E-05   -0.33646E-05  1168   0.119E-02    0.212E-02
DAV:   6    -0.765373574689E+03   -0.34131E-05   -0.14240E-05  1072   0.668E-03
 4993 T=   227. E= -.76899678E+03 F= -.76854428E+03 E0= -.76854428E+03  EK= 0.26169E+01 SP= -.31E+01 SK= 0.98E-02 mag=     -0.000
       N       E                     dE             d eps       ncg     rms          rms(c)
DAV:   1    -0.765349664888E+03    0.23906E-01   -0.84410E-02  1208   0.131E+00    0.171E-01
DAV:   2    -0.765352919765E+03   -0.32549E-02   -0.35254E-02  1224   0.318E-01    0.122E-01
DAV:   3    -0.765352816977E+03    0.10279E-03   -0.57712E-04  1392   0.415E-02    0.814E-02
DAV:   4    -0.765352791264E+03    0.25713E-04   -0.27475E-04  1192   0.263E-02    0.391E-02
DAV:   5    -0.765352799431E+03   -0.81671E-05   -0.28277E-05  1120   0.106E-02    0.217E-02
DAV:   6    -0.765352810954E+03   -0.11523E-04   -0.14796E-05  1056   0.672E-03    0.129E-02
DAV:   7    -0.765352815788E+03   -0.48337E-05   -0.18299E-06   880   0.274E-03
 4994 T=   229. E= -.76899681E+03 F= -.76852486E+03 E0= -.76852486E+03  EK= 0.26364E+01 SP= -.31E+01 SK= 0.22E-01 mag=     -0.000
       N       E                     dE             d eps       ncg     rms          rms(c)
DAV:   1    -0.765378550180E+03   -0.25739E-01   -0.88436E-02  1192   0.130E+00    0.175E-01
DAV:   2    -0.765381716262E+03   -0.31661E-02   -0.34229E-02  1216   0.325E-01    0.113E-01
DAV:   3    -0.765381647210E+03    0.69052E-04   -0.50398E-04  1368   0.407E-02    0.750E-02
DAV:   4    -0.765381621729E+03    0.25482E-04   -0.22479E-04  1216   0.270E-02    0.344E-02
DAV:   5    -0.765381628256E+03   -0.65275E-05   -0.30849E-05  1112   0.110E-02    0.197E-02
DAV:   6    -0.765381635075E+03   -0.68190E-05   -0.14532E-05  1008   0.657E-03
 4995 T=   237. E= -.76899656E+03 F= -.76855496E+03 E0= -.76855496E+03  EK= 0.27223E+01 SP= -.32E+01 SK= 0.38E-01 mag=     -0.000
       N       E                     dE             d eps       ncg     rms          rms(c)
DAV:   1    -0.765464202344E+03   -0.82574E-01   -0.10966E-01  1208   0.133E+00    0.179E-01
DAV:   2    -0.765467502317E+03   -0.33000E-02   -0.35522E-02  1224   0.331E-01    0.128E-01
DAV:   3    -0.765467417824E+03    0.84493E-04   -0.50464E-04  1376   0.415E-02    0.859E-02
DAV:   4    -0.765467390149E+03    0.27675E-04   -0.22690E-04  1248   0.289E-02    0.371E-02
DAV:   5    -0.765467394724E+03   -0.45751E-05   -0.39933E-05  1152   0.122E-02    0.188E-02
DAV:   6    -0.765467397933E+03   -0.32089E-05   -0.13914E-05  1064   0.628E-03
 4996 T=   250. E= -.76899754E+03 F= -.76864193E+03 E0= -.76864193E+03  EK= 0.28810E+01 SP= -.33E+01 SK= 0.54E-01 mag=     -0.000
       N       E                     dE             d eps       ncg     rms          rms(c)
DAV:   1    -0.765596612484E+03   -0.12922E+00   -0.84125E-02  1232   0.135E+00    0.154E-01
DAV:   2    -0.765599670719E+03   -0.30582E-02   -0.32394E-02  1224   0.319E-01    0.104E-01
DAV:   3    -0.765599626570E+03    0.44149E-04   -0.38274E-04  1392   0.371E-02    0.723E-02
DAV:   4    -0.765599608718E+03    0.17852E-04   -0.19305E-04  1232   0.270E-02    0.307E-02
DAV:   5    -0.765599612030E+03   -0.33119E-05   -0.30555E-05  1104   0.106E-02    0.186E-02
DAV:   6    -0.765599614134E+03   -0.21039E-05   -0.11937E-05  1048   0.613E-03
 4997 T=   269. E= -.76900205E+03 F= -.76877527E+03 E0= -.76877527E+03  EK= 0.30995E+01 SP= -.34E+01 SK= 0.68E-01 mag=     -0.000
       N       E                     dE             d eps       ncg     rms          rms(c)
DAV:   1    -0.765719626395E+03   -0.12001E+00   -0.78300E-02  1208   0.142E+00    0.168E-01
DAV:   2    -0.765723039980E+03   -0.34136E-02   -0.36666E-02  1192   0.340E-01    0.107E-01
DAV:   3    -0.765723005462E+03    0.34518E-04   -0.49102E-04  1416   0.402E-02    0.754E-02
DAV:   4    -0.765722990980E+03    0.14482E-04   -0.17369E-04  1208   0.246E-02    0.382E-02
DAV:   5    -0.765722997891E+03   -0.69110E-05   -0.24603E-05  1056   0.997E-03    0.212E-02
DAV:   6    -0.765723004689E+03   -0.67975E-05   -0.12912E-05  1072   0.662E-03
 4998 T=   289. E= -.76900549E+03 F= -.76889974E+03 E0= -.76889974E+03  EK= 0.33249E+01 SP= -.35E+01 SK= 0.76E-01 mag=      0.000
       N       E                     dE             d eps       ncg     rms          rms(c)
DAV:   1    -0.765787574300E+03   -0.64576E-01   -0.96201E-02  1224   0.149E+00    0.201E-01
DAV:   2    -0.765791661943E+03   -0.40876E-02   -0.44943E-02  1232   0.373E-01    0.128E-01
DAV:   3    -0.765791605519E+03    0.56425E-04   -0.72142E-04  1424   0.470E-02    0.896E-02
DAV:   4    -0.765791588063E+03    0.17455E-04   -0.23474E-04  1216   0.279E-02    0.454E-02
DAV:   5    -0.765791599763E+03   -0.11700E-04   -0.34869E-05  1152   0.118E-02    0.226E-02
DAV:   6    -0.765791609895E+03   -0.10132E-04   -0.18815E-05  1080   0.756E-03    0.133E-02
DAV:   7    -0.765791615599E+03   -0.57038E-05   -0.27175E-06   872   0.297E-03
 4999 T=   305. E= -.76900522E+03 F= -.76896947E+03 E0= -.76896947E+03  EK= 0.35090E+01 SP= -.36E+01 SK= 0.77E-01 mag=      0.000
       N       E                     dE             d eps       ncg     rms          rms(c)
DAV:   1    -0.765806963056E+03   -0.15353E-01   -0.93827E-02  1200   0.152E+00    0.194E-01
DAV:   2    -0.765811122151E+03   -0.41591E-02   -0.44835E-02  1232   0.372E-01    0.128E-01
DAV:   3    -0.765811046628E+03    0.75524E-04   -0.78711E-04  1432   0.477E-02    0.867E-02
DAV:   4    -0.765811018955E+03    0.27673E-04   -0.20439E-04  1232   0.257E-02    0.458E-02
DAV:   5    -0.765811021182E+03   -0.22275E-05   -0.33579E-05  1152   0.115E-02    0.217E-02
DAV:   6    -0.765811024354E+03   -0.31715E-05   -0.17502E-05  1112   0.733E-03
 5000 T=   317. E= -.76900430E+03 F= -.76899011E+03 E0= -.76899011E+03  EK= 0.36484E+01 SP= -.37E+01 SK= 0.73E-01 mag=      0.000
