       N       E                     dE             d eps       ncg     rms          rms(c)
DAV:   1     0.291637771185E+04    0.29164E+04   -0.13206E+05  1168   0.960E+02
DAV:   2    -0.254821854516E+03   -0.31712E+04   -0.29765E+04  1640   0.245E+02
DAV:   3    -0.764258683830E+03   -0.50944E+03   -0.50614E+03  1368   0.997E+01
DAV:   4    -0.780701538247E+03   -0.16443E+02   -0.16380E+02  1416   0.217E+01
DAV:   5    -0.781168772730E+03   -0.46723E+00   -0.46660E+00  1528   0.320E+00
DAV:   6    -0.781182105997E+03   -0.13333E-01   -0.13319E-01  1480   0.524E-01
DAV:   7    -0.781182593659E+03   -0.48766E-03   -0.48747E-03  1576   0.970E-02
DAV:   8    -0.781182615123E+03   -0.21464E-04   -0.21454E-04  1352   0.189E-02    0.620E+01
DAV:   9    -0.523588816974E+03    0.25759E+03   -0.41744E+02  1256   0.295E+01    0.330E+01
DAV:  10    -0.605910996129E+03   -0.82322E+02   -0.68612E+01  1224   0.125E+01    0.204E+01
DAV:  11    -0.661221215988E+03   -0.55310E+02   -0.41761E+01  1240   0.965E+00    0.117E+01
DAV:  12    -0.703051031769E+03   -0.41830E+02   -0.20016E+01  1240   0.628E+00    0.743E+00
DAV:  13    -0.735257045024E+03   -0.32206E+02   -0.20306E+01  1264   0.576E+00    0.470E+00
DAV:  14    -0.755333145517E+03   -0.20076E+02   -0.13226E+01  1232   0.417E+00    0.268E+00
DAV:  15    -0.762744944283E+03   -0.74118E+01   -0.37304E+00  1208   0.214E+00    0.161E+00
DAV:  16    -0.767193775988E+03   -0.44488E+01   -0.14642E+00  1224   0.129E+00    0.624E-01
DAV:  17    -0.768323741990E+03   -0.11300E+01   -0.13944E-01  1344   0.467E-01    0.294E-01
DAV:  18    -0.768660989518E+03   -0.33725E+00   -0.43090E-02  1272   0.273E-01    0.176E-01
DAV:  19    -0.768695407826E+03   -0.34418E-01   -0.41687E-03  1328   0.118E-01    0.105E-01
DAV:  20    -0.768727363422E+03   -0.31956E-01   -0.67021E-03  1256   0.111E-01    0.773E-02
DAV:  21    -0.768733740855E+03   -0.63774E-02   -0.10039E-03  1288   0.567E-02    0.455E-02
DAV:  22    -0.768738411930E+03   -0.46711E-02   -0.73859E-04  1224   0.414E-02    0.292E-02
DAV:  23    -0.768741963294E+03   -0.35514E-02   -0.30986E-04  1144   0.283E-02    0.193E-02
DAV:  24    -0.768744350365E+03   -0.23871E-02   -0.22566E-04  1160   0.216E-02    0.156E-02
DAV:  25    -0.768745763774E+03   -0.14134E-02   -0.10234E-04  1144   0.172E-02    0.129E-02
DAV:  26    -0.768746348195E+03   -0.58442E-03   -0.35969E-05  1120   0.117E-02    0.120E-02
DAV:  27    -0.768746690096E+03   -0.34190E-03   -0.12410E-05   992   0.734E-03    0.112E-02
DAV:  28    -0.768746834323E+03   -0.14423E-03   -0.53305E-06   896   0.470E-03    0.109E-02
DAV:  29    -0.768746908586E+03   -0.74263E-04   -0.33922E-06   888   0.329E-03    0.109E-02
DAV:  30    -0.768746927579E+03   -0.18993E-04   -0.15381E-06   872   0.197E-03    0.108E-02
DAV:  31    -0.768746938027E+03   -0.10448E-04   -0.93536E-07   904   0.149E-03    0.108E-02
DAV:  32    -0.768746943279E+03   -0.52514E-05   -0.50975E-07   800   0.110E-03
    1 T=   300. E= -.76862026E+03 F= -.77207149E+03 E0= -.77207149E+03  EK= 0.34512E+01 SP= 0.00E+00 SK= 0.38E-09 mag=      4.000
       N       E                     dE             d eps       ncg     rms          rms(c)
DAV:   1    -0.768560214629E+03    0.18672E+00   -0.15035E+01  1136   0.760E+00    0.101E+00
DAV:   2    -0.768579667146E+03   -0.19453E-01   -0.34438E-01  1288   0.106E+00    0.661E-01
DAV:   3    -0.768574232921E+03    0.54342E-02   -0.23534E-02  1304   0.312E-01    0.324E-01
DAV:   4    -0.768573547984E+03    0.68494E-03   -0.53556E-03  1184   0.145E-01    0.117E-01
DAV:   5    -0.768573534495E+03    0.13490E-04   -0.85567E-04  1224   0.625E-02    0.553E-02
DAV:   6    -0.768573684383E+03   -0.14989E-03   -0.13988E-04  1176   0.283E-02    0.303E-02
DAV:   7    -0.768573720873E+03   -0.36490E-04   -0.30286E-05  1136   0.120E-02    0.169E-02
DAV:   8    -0.768573749126E+03   -0.28253E-04   -0.48811E-06   872   0.562E-03    0.122E-02
DAV:   9    -0.768573785757E+03   -0.36631E-04   -0.42121E-06   864   0.410E-03    0.112E-02
DAV:  10    -0.768573820653E+03   -0.34895E-04   -0.17218E-06   880   0.249E-03    0.110E-02
DAV:  11    -0.768573861411E+03   -0.40759E-04   -0.21317E-06   872   0.215E-03    0.108E-02
DAV:  12    -0.768573887877E+03   -0.26465E-04   -0.13172E-06   888   0.157E-03    0.108E-02
DAV:  13    -0.768573902384E+03   -0.14507E-04   -0.70625E-07   872   0.110E-03    0.108E-02
DAV:  14    -0.768573908855E+03   -0.64713E-05   -0.31404E-07   872   0.678E-04
    2 T=   286. E= -.76861221E+03 F= -.77189740E+03 E0= -.77189740E+03  EK= 0.32851E+01 SP= 0.16E-04 SK= 0.24E-04 mag=      4.000
       N       E                     dE             d eps       ncg     rms          rms(c)
DAV:   1    -0.768142591118E+03    0.43131E+00   -0.14813E-01  1344   0.153E+00    0.316E-01
DAV:   2    -0.768147317271E+03   -0.47262E-02   -0.53287E-02  1184   0.434E-01    0.139E-01
DAV:   3    -0.768147290762E+03    0.26510E-04   -0.72502E-04  1400   0.493E-02    0.945E-02
DAV:   4    -0.768147284008E+03    0.67537E-05   -0.25641E-04  1184   0.271E-02    0.450E-02
DAV:   5    -0.768147287271E+03   -0.32633E-05   -0.26394E-05  1160   0.114E-02    0.252E-02
DAV:   6    -0.768147291068E+03   -0.37967E-05   -0.14267E-05  1040   0.673E-03
    3 T=   250. E= -.76859789E+03 F= -.77146961E+03 E0= -.77146961E+03  EK= 0.28750E+01 SP= -.40E-02 SK= 0.73E-03 mag=      4.000
       N       E                     dE             d eps       ncg     rms          rms(c)
DAV:   1    -0.767646620987E+03    0.50067E+00   -0.44030E-02  1248   0.124E+00    0.167E-01
DAV:   2    -0.767649061882E+03   -0.24409E-02   -0.25428E-02  1232   0.297E-01    0.102E-01
DAV:   3    -0.767649010456E+03    0.51426E-04   -0.28670E-04  1368   0.338E-02    0.683E-02
DAV:   4    -0.767649005242E+03    0.52137E-05   -0.20126E-04  1184   0.223E-02    0.304E-02
DAV:   5    -0.767649005735E+03   -0.49292E-06   -0.20886E-05  1112   0.911E-03    0.220E-02
DAV:   6    -0.767649008371E+03   -0.26356E-05   -0.76384E-06   968   0.471E-03
    4 T=   209. E= -.76858644E+03 F= -.77097005E+03 E0= -.77097005E+03  EK= 0.24002E+01 SP= -.22E-01 SK= 0.57E-02 mag=      4.000
       N       E                     dE             d eps       ncg     rms          rms(c)
DAV:   1    -0.767220133022E+03    0.42887E+00   -0.10339E-02  1176   0.988E-01    0.108E-01
DAV:   2    -0.767221420988E+03   -0.12880E-02   -0.13385E-02  1224   0.215E-01    0.721E-02
DAV:   3    -0.767221401098E+03    0.19889E-04   -0.12635E-04  1384   0.219E-02    0.508E-02
DAV:   4    -0.767221392061E+03    0.90370E-05   -0.71575E-05  1120   0.165E-02    0.224E-02
DAV:   5    -0.767221394073E+03   -0.20117E-05   -0.12392E-05   992   0.676E-03    0.161E-02
DAV:   6    -0.767221397518E+03   -0.34449E-05   -0.44131E-06   896   0.375E-03
    5 T=   174. E= -.76858157E+03 F= -.77054110E+03 E0= -.77054110E+03  EK= 0.20034E+01 SP= -.66E-01 SK= 0.22E-01 mag=      4.000
       N       E                     dE             d eps       ncg     rms          rms(c)
DAV:   1    -0.766911872896E+03    0.30952E+00   -0.19948E-02  1272   0.895E-01    0.113E-01
DAV:   2    -0.766913606669E+03   -0.17338E-02   -0.18043E-02  1184   0.239E-01    0.809E-02
DAV:   3    -0.766913563199E+03    0.43470E-04   -0.18158E-04  1392   0.262E-02    0.575E-02
DAV:   4    -0.766913531421E+03    0.31778E-04   -0.12698E-04  1152   0.218E-02    0.233E-02
DAV:   5    -0.766913536169E+03   -0.47477E-05   -0.28853E-05  1128   0.938E-03    0.160E-02
DAV:   6    -0.766913539633E+03   -0.34638E-05   -0.28054E-06   848   0.348E-03
    6 T=   151. E= -.76858223E+03 F= -.77023196E+03 E0= -.77023196E+03  EK= 0.17363E+01 SP= -.15E+00 SK= 0.59E-01 mag=      4.000
       N       E                     dE             d eps       ncg     rms          rms(c)
DAV:   1    -0.766704545565E+03    0.20899E+00   -0.65517E-02  1232   0.973E-01    0.133E-01
DAV:   2    -0.766707443988E+03   -0.28984E-02   -0.30732E-02  1184   0.291E-01    0.113E-01
DAV:   3    -0.766707352459E+03    0.91529E-04   -0.40387E-04  1424   0.373E-02    0.834E-02
DAV:   4    -0.766707280043E+03    0.72416E-04   -0.26300E-04  1184   0.283E-02    0.379E-02
DAV:   5    -0.766707280863E+03   -0.81999E-06   -0.61183E-05  1208   0.141E-02    0.209E-02
DAV:   6    -0.766707285356E+03   -0.44929E-05   -0.97560E-06  1064   0.586E-03
    7 T=   138. E= -.76858306E+03 F= -.77002461E+03 E0= -.77002461E+03  EK= 0.15867E+01 SP= -.27E+00 SK= 0.12E+00 mag=      4.000
       N       E                     dE             d eps       ncg     rms          rms(c)
DAV:   1    -0.766592473550E+03    0.11481E+00   -0.17161E-01  1216   0.120E+00    0.172E-01
DAV:   2    -0.766596107649E+03   -0.36341E-02   -0.40018E-02  1224   0.333E-01    0.139E-01
DAV:   3    -0.766595961177E+03    0.14647E-03   -0.70760E-04  1408   0.498E-02    0.991E-02
DAV:   4    -0.766595874906E+03    0.86271E-04   -0.35692E-04  1200   0.329E-02    0.474E-02
DAV:   5    -0.766595867575E+03    0.73312E-05   -0.79154E-05  1224   0.168E-02    0.217E-02
DAV:   6    -0.766595869271E+03   -0.16961E-05   -0.15252E-05  1072   0.718E-03
    8 T=   135. E= -.76858125E+03 F= -.76991235E+03 E0= -.76991235E+03  EK= 0.15529E+01 SP= -.44E+00 SK= 0.21E+00 mag=      4.000
       N       E                     dE             d eps       ncg     rms          rms(c)
DAV:   1    -0.766607155102E+03   -0.11288E-01   -0.20574E-01  1184   0.133E+00    0.184E-01
DAV:   2    -0.766610970788E+03   -0.38157E-02   -0.41877E-02  1176   0.366E-01    0.132E-01
DAV:   3    -0.766610820775E+03    0.15001E-03   -0.63300E-04  1400   0.516E-02    0.878E-02
DAV:   4    -0.766610776008E+03    0.44767E-04   -0.44088E-04  1192   0.376E-02    0.363E-02
DAV:   5    -0.766610777546E+03   -0.15381E-05   -0.66662E-05  1192   0.165E-02    0.199E-02
DAV:   6    -0.766610781603E+03   -0.40570E-05   -0.13748E-05  1048   0.680E-03
    9 T=   145. E= -.76858225E+03 F= -.76992664E+03 E0= -.76992664E+03  EK= 0.16670E+01 SP= -.65E+00 SK= 0.33E+00 mag=      4.000
       N       E                     dE             d eps       ncg     rms          rms(c)
DAV:   1    -0.766736863685E+03   -0.12609E+00   -0.11178E-01  1200   0.131E+00    0.197E-01
DAV:   2    -0.766740476302E+03   -0.36126E-02   -0.40453E-02  1200   0.367E-01    0.136E-01
DAV:   3    -0.766740338748E+03    0.13755E-03   -0.65821E-04  1376   0.489E-02    0.911E-02
DAV:   4    -0.766740308193E+03    0.30555E-04   -0.32114E-04  1192   0.314E-02    0.423E-02
DAV:   5    -0.766740313660E+03   -0.54665E-05   -0.44973E-05  1224   0.142E-02    0.191E-02
DAV:   6    -0.766740320386E+03   -0.67266E-05   -0.13522E-05  1072   0.649E-03
   10 T=   167. E= -.76858992E+03 F= -.77005567E+03 E0= -.77005567E+03  EK= 0.19236E+01 SP= -.91E+00 SK= 0.45E+00 mag=      4.000
       N       E                     dE             d eps       ncg     rms          rms(c)
DAV:   1    -0.766869381675E+03   -0.12907E+00   -0.72436E-02  1224   0.140E+00    0.186E-01
DAV:   2    -0.766873199559E+03   -0.38179E-02   -0.41581E-02  1208   0.367E-01    0.138E-01
DAV:   3    -0.766873053089E+03    0.14647E-03   -0.64858E-04  1360   0.478E-02    0.951E-02
DAV:   4    -0.766872999991E+03    0.53097E-04   -0.28032E-04  1200   0.303E-02    0.491E-02
DAV:   5    -0.766872997293E+03    0.26978E-05   -0.47906E-05  1224   0.145E-02    0.225E-02
DAV:   6    -0.766873001186E+03   -0.38921E-05   -0.16532E-05  1104   0.736E-03
   11 T=   193. E= -.76859835E+03 F= -.77018783E+03 E0= -.77018783E+03  EK= 0.22257E+01 SP= -.12E+01 SK= 0.57E+00 mag=      4.000
       N       E                     dE             d eps       ncg     rms          rms(c)
DAV:   1    -0.766869582086E+03    0.34152E-02   -0.97803E-02  1240   0.155E+00    0.179E-01
DAV:   2    -0.766874337302E+03   -0.47552E-02   -0.49932E-02  1144   0.413E-01    0.137E-01
DAV:   3    -0.766874184334E+03    0.15297E-03   -0.60705E-04  1376   0.507E-02    0.968E-02
DAV:   4    -0.766874114980E+03    0.69353E-04   -0.34562E-04  1216   0.360E-02    0.461E-02
DAV:   5    -0.766874114357E+03    0.62305E-06   -0.57792E-05  1280   0.156E-02    0.246E-02
DAV:   6    -0.766874117205E+03   -0.28479E-05   -0.14616E-05  1072   0.736E-03
   12 T=   213. E= -.76859906E+03 F= -.77018829E+03 E0= -.77018829E+03  EK= 0.24462E+01 SP= -.15E+01 SK= 0.67E+00 mag=      4.000
       N       E                     dE             d eps       ncg     rms          rms(c)
DAV:   1    -0.766697845770E+03    0.17627E+00   -0.16629E-01  1192   0.167E+00    0.180E-01
DAV:   2    -0.766703549644E+03   -0.57039E-02   -0.59662E-02  1200   0.455E-01    0.149E-01
DAV:   3    -0.766703345209E+03    0.20443E-03   -0.74029E-04  1416   0.574E-02    0.106E-01
DAV:   4    -0.766703235065E+03    0.11014E-03   -0.55012E-04  1216   0.458E-02    0.453E-02
DAV:   5    -0.766703236626E+03   -0.15608E-05   -0.84260E-05  1240   0.187E-02    0.255E-02
DAV:   6    -0.766703240908E+03   -0.42812E-05   -0.18503E-05  1080   0.819E-03
   13 T=   220. E= -.76859356E+03 F= -.77001655E+03 E0= -.77001655E+03  EK= 0.25329E+01 SP= -.19E+01 SK= 0.77E+00 mag=      4.000
       N       E                     dE             d eps       ncg     rms          rms(c)
DAV:   1    -0.766405045958E+03    0.29819E+00   -0.12453E-01  1208   0.157E+00    0.166E-01
DAV:   2    -0.766409936222E+03   -0.48903E-02   -0.51622E-02  1168   0.421E-01    0.132E-01
DAV:   3    -0.766409765067E+03    0.17116E-03   -0.66241E-04  1408   0.536E-02    0.933E-02
DAV:   4    -0.766409660410E+03    0.10466E-03   -0.47699E-04  1216   0.425E-02    0.407E-02
DAV:   5    -0.766409657551E+03    0.28587E-05   -0.68109E-05  1208   0.166E-02    0.256E-02
DAV:   6    -0.766409658310E+03   -0.75869E-06   -0.17303E-05  1096   0.834E-03
   14 T=   219. E= -.76858717E+03 F= -.76972187E+03 E0= -.76972187E+03  EK= 0.25175E+01 SP= -.23E+01 SK= 0.87E+00 mag=      4.000
       N       E                     dE             d eps       ncg     rms          rms(c)
DAV:   1    -0.766055295643E+03    0.35436E+00   -0.66171E-02  1200   0.142E+00    0.164E-01
DAV:   2    -0.766058963351E+03   -0.36677E-02   -0.39475E-02  1176   0.353E-01    0.120E-01
DAV:   3    -0.766058846722E+03    0.11663E-03   -0.48674E-04  1336   0.442E-02    0.844E-02
DAV:   4    -0.766058786730E+03    0.59992E-04   -0.37147E-04  1248   0.354E-02    0.373E-02
DAV:   5    -0.766058790518E+03   -0.37887E-05   -0.47225E-05  1224   0.134E-02    0.249E-02
DAV:   6    -0.766058795360E+03   -0.48411E-05   -0.13564E-05  1080   0.738E-03
   15 T=   213. E= -.76858256E+03 F= -.76936965E+03 E0= -.76936965E+03  EK= 0.24551E+01 SP= -.26E+01 SK= 0.98E+00 mag=      4.000
       N       E                     dE             d eps       ncg     rms          rms(c)
DAV:   1    -0.765695706473E+03    0.36308E+00   -0.71872E-02  1240   0.136E+00    0.178E-01
DAV:   2    -0.765699309293E+03   -0.36028E-02   -0.39106E-02  1208   0.352E-01    0.113E-01
DAV:   3    -0.765699225533E+03    0.83760E-04   -0.50258E-04  1368   0.431E-02    0.806E-02
DAV:   4    -0.765699180114E+03    0.45419E-04   -0.28883E-04  1248   0.319E-02    0.364E-02
DAV:   5    -0.765699187397E+03   -0.72831E-05   -0.46211E-05  1232   0.130E-02    0.233E-02
DAV:   6    -0.765699192939E+03   -0.55424E-05   -0.14032E-05  1072   0.724E-03
   16 T=   208. E= -.76857681E+03 F= -.76900847E+03 E0= -.76900847E+03  EK= 0.23948E+01 SP= -.31E+01 SK= 0.11E+01 mag=      4.000
       N       E                     dE             d eps       ncg     rms          rms(c)
DAV:   1    -0.765395284030E+03    0.30390E+00   -0.13944E-01  1264   0.138E+00    0.195E-01
DAV:   2    -0.765399265079E+03   -0.39810E-02   -0.43553E-02  1248   0.383E-01    0.125E-01
DAV:   3    -0.765399164440E+03    0.10064E-03   -0.75352E-04  1352   0.511E-02    0.880E-02
DAV:   4    -0.765399104909E+03    0.59530E-04   -0.23713E-04  1264   0.315E-02    0.443E-02
DAV:   5    -0.765399102151E+03    0.27589E-05   -0.60086E-05  1208   0.158E-02    0.216E-02
DAV:   6    -0.765399104280E+03   -0.21297E-05   -0.26520E-05  1112   0.869E-03
   17 T=   210. E= -.76856888E+03 F= -.76870666E+03 E0= -.76870666E+03  EK= 0.24111E+01 SP= -.35E+01 SK= 0.12E+01 mag=      4.000
       N       E                     dE             d eps       ncg     rms          rms(c)
DAV:   1    -0.765250202645E+03    0.14890E+00   -0.19909E-01  1200   0.145E+00    0.207E-01
DAV:   2    -0.765255157513E+03   -0.49549E-02   -0.53530E-02  1224   0.404E-01    0.159E-01
DAV:   3    -0.765254935997E+03    0.22152E-03   -0.10570E-03  1360   0.577E-02    0.105E-01
DAV:   4    -0.765254848740E+03    0.87257E-04   -0.33973E-04  1232   0.353E-02    0.481E-02
DAV:   5    -0.765254853474E+03   -0.47338E-05   -0.10102E-04  1272   0.183E-02    0.171E-02
DAV:   6    -0.765254859690E+03   -0.62161E-05   -0.13204E-05  1064   0.693E-03
   18 T=   227. E= -.76856781E+03 F= -.76856069E+03 E0= -.76856069E+03  EK= 0.26080E+01 SP= -.40E+01 SK= 0.14E+01 mag=      4.000
       N       E                     dE             d eps       ncg     rms          rms(c)
DAV:   1    -0.765257093846E+03   -0.22404E-02   -0.11705E-01  1240   0.143E+00    0.182E-01
DAV:   2    -0.765262521212E+03   -0.54274E-02   -0.56693E-02  1176   0.400E-01    0.148E-01
DAV:   3    -0.765262329640E+03    0.19157E-03   -0.76520E-04  1416   0.505E-02    0.105E-01
DAV:   4    -0.765262235511E+03    0.94130E-04   -0.54691E-04  1224   0.380E-02    0.432E-02
DAV:   5    -0.765262242326E+03   -0.68151E-05   -0.68368E-05  1216   0.149E-02    0.272E-02
DAV:   6    -0.765262249882E+03   -0.75562E-05   -0.10981E-05  1040   0.625E-03
   19 T=   261. E= -.76857519E+03 F= -.76856637E+03 E0= -.76856637E+03  EK= 0.30043E+01 SP= -.45E+01 SK= 0.15E+01 mag=      4.000
       N       E                     dE             d eps       ncg     rms          rms(c)
DAV:   1    -0.765295705154E+03   -0.33463E-01   -0.25742E-01  1200   0.175E+00    0.220E-01
DAV:   2    -0.765303090738E+03   -0.73856E-02   -0.78662E-02  1168   0.494E-01    0.161E-01
DAV:   3    -0.765302915831E+03    0.17491E-03   -0.10663E-03  1392   0.636E-02    0.114E-01
DAV:   4    -0.765302799951E+03    0.11588E-03   -0.47173E-04  1224   0.400E-02    0.522E-02
DAV:   5    -0.765302797130E+03    0.28207E-05   -0.87852E-05  1240   0.183E-02    0.246E-02
DAV:   6    -0.765302801337E+03   -0.42067E-05   -0.19159E-05  1096   0.802E-03
   20 T=   306. E= -.76856992E+03 F= -.76860514E+03 E0= -.76860514E+03  EK= 0.35208E+01 SP= -.50E+01 SK= 0.15E+01 mag=      4.000
       N       E                     dE             d eps       ncg     rms          rms(c)
DAV:   1    -0.765400199244E+03   -0.97402E-01   -0.60899E-01  1200   0.217E+00    0.339E-01
DAV:   2    -0.765410139721E+03   -0.99405E-02   -0.11381E-01  1184   0.591E-01    0.241E-01
DAV:   3    -0.765409747543E+03    0.39218E-03   -0.21575E-03  1456   0.871E-02    0.164E-01
DAV:   4    -0.765409595953E+03    0.15159E-03   -0.84363E-04  1216   0.508E-02    0.715E-02
DAV:   5    -0.765409598169E+03   -0.22161E-05   -0.15652E-04  1208   0.242E-02    0.240E-02
DAV:   6    -0.765409608897E+03   -0.10729E-04   -0.30607E-05  1136   0.937E-03    0.156E-02
DAV:   7    -0.765409614923E+03   -0.60253E-05   -0.29376E-06   832   0.400E-03
   21 T=   364. E= -.76856071E+03 F= -.76870998E+03 E0= -.76870998E+03  EK= 0.41904E+01 SP= -.55E+01 SK= 0.14E+01 mag=      4.000
       N       E                     dE             d eps       ncg     rms          rms(c)
DAV:   1    -0.765653965501E+03   -0.24436E+00   -0.15981E-01  1296   0.185E+00    0.241E-01
DAV:   2    -0.765661690293E+03   -0.77248E-02   -0.81188E-02  1224   0.513E-01    0.169E-01
DAV:   3    -0.765661500137E+03    0.19016E-03   -0.94975E-04  1424   0.615E-02    0.120E-01
DAV:   4    -0.765661427855E+03    0.72281E-04   -0.56731E-04  1256   0.431E-02    0.537E-02
DAV:   5    -0.765661442000E+03   -0.14145E-04   -0.80313E-05  1296   0.177E-02    0.294E-02
DAV:   6    -0.765661455352E+03   -0.13352E-04   -0.18766E-05  1128   0.780E-03    0.143E-02
DAV:   7    -0.765661462687E+03   -0.73344E-05   -0.32275E-06   896   0.373E-03
   22 T=   440. E= -.76857556E+03 F= -.76895953E+03 E0= -.76895953E+03  EK= 0.50667E+01 SP= -.59E+01 SK= 0.13E+01 mag=      4.000
       N       E                     dE             d eps       ncg     rms          rms(c)
DAV:   1    -0.765830927524E+03   -0.16947E+00   -0.15591E-01  1216   0.202E+00    0.254E-01
DAV:   2    -0.765838504700E+03   -0.75772E-02   -0.80454E-02  1208   0.511E-01    0.175E-01
DAV:   3    -0.765838322755E+03    0.18195E-03   -0.96121E-04  1432   0.612E-02    0.121E-01
DAV:   4    -0.765838281227E+03    0.41527E-04   -0.67203E-04  1232   0.485E-02    0.502E-02
DAV:   5    -0.765838290682E+03   -0.94551E-05   -0.88748E-05  1264   0.186E-02    0.316E-02
DAV:   6    -0.765838299920E+03   -0.92381E-05   -0.33088E-05  1136   0.975E-03
   23 T=   515. E= -.76858877E+03 F= -.76913382E+03 E0= -.76913382E+03  EK= 0.59271E+01 SP= -.64E+01 SK= 0.10E+01 mag=      4.000
       N       E                     dE             d eps       ncg     rms          rms(c)
DAV:   1    -0.765691737087E+03    0.14655E+00   -0.36662E-01  1216   0.233E+00    0.318E-01
DAV:   2    -0.765702816370E+03   -0.11079E-01   -0.11976E-01  1192   0.637E-01    0.231E-01
DAV:   3    -0.765702472951E+03    0.34342E-03   -0.16701E-03  1408   0.813E-02    0.159E-01
DAV:   4    -0.765702368208E+03    0.10474E-03   -0.11346E-03  1216   0.646E-02    0.641E-02
DAV:   5    -0.765702382744E+03   -0.14536E-04   -0.15645E-04  1280   0.253E-02    0.343E-02
DAV:   6    -0.765702394769E+03   -0.12025E-04   -0.60765E-05  1144   0.134E-02    0.170E-02
DAV:   7    -0.765702397716E+03   -0.29464E-05   -0.65814E-06   944   0.573E-03
   24 T=   563. E= -.76858286E+03 F= -.76899530E+03 E0= -.76899530E+03  EK= 0.64764E+01 SP= -.68E+01 SK= 0.70E+00 mag=      4.000
       N       E                     dE             d eps       ncg     rms          rms(c)
DAV:   1    -0.765247734158E+03    0.45466E+00   -0.39010E-01  1216   0.236E+00    0.295E-01
DAV:   2    -0.765259650153E+03   -0.11916E-01   -0.12750E-01  1184   0.651E-01    0.207E-01
DAV:   3    -0.765259351417E+03    0.29874E-03   -0.17316E-03  1416   0.823E-02    0.144E-01
DAV:   4    -0.765259181383E+03    0.17003E-03   -0.11090E-03  1256   0.643E-02    0.579E-02
DAV:   5    -0.765259188199E+03   -0.68157E-05   -0.15985E-04  1280   0.247E-02    0.334E-02
DAV:   6    -0.765259191496E+03   -0.32971E-05   -0.55638E-05  1152   0.137E-02
   25 T=   576. E= -.76856777E+03 F= -.76854967E+03 E0= -.76854967E+03  EK= 0.66268E+01 SP= -.71E+01 SK= 0.42E+00 mag=      4.000
       N       E                     dE             d eps       ncg     rms          rms(c)
DAV:   1    -0.764635919259E+03    0.62327E+00   -0.35046E-01  1200   0.230E+00    0.300E-01
DAV:   2    -0.764646575627E+03   -0.10656E-01   -0.11599E-01  1208   0.605E-01    0.205E-01
DAV:   3    -0.764646378290E+03    0.19734E-03   -0.16773E-03  1360   0.763E-02    0.145E-01
DAV:   4    -0.764646254710E+03    0.12358E-03   -0.84557E-04  1240   0.576E-02    0.590E-02
DAV:   5    -0.764646269666E+03   -0.14956E-04   -0.15573E-04  1272   0.239E-02    0.319E-02
DAV:   6    -0.764646269120E+03    0.54600E-06   -0.48345E-05  1128   0.128E-02
   26 T=   561. E= -.76855290E+03 F= -.76793466E+03 E0= -.76793466E+03  EK= 0.64591E+01 SP= -.73E+01 SK= 0.21E+00 mag=      4.000
       N       E                     dE             d eps       ncg     rms          rms(c)
DAV:   1    -0.763993382209E+03    0.65289E+00   -0.31173E-01  1216   0.224E+00    0.290E-01
DAV:   2    -0.764003716043E+03   -0.10334E-01   -0.11049E-01  1224   0.591E-01    0.200E-01
DAV:   3    -0.764003496484E+03    0.21956E-03   -0.16811E-03  1376   0.768E-02    0.138E-01
DAV:   4    -0.764003396423E+03    0.10006E-03   -0.60438E-04  1264   0.499E-02    0.608E-02
DAV:   5    -0.764003421183E+03   -0.24760E-04   -0.14910E-04  1280   0.229E-02    0.251E-02
DAV:   6    -0.764003432363E+03   -0.11180E-04   -0.22249E-05  1176   0.910E-03    0.154E-02
DAV:   7    -0.764003441498E+03   -0.91355E-05   -0.40756E-06   856   0.434E-03
   27 T=   531. E= -.76853847E+03 F= -.76728994E+03 E0= -.76728994E+03  EK= 0.61084E+01 SP= -.74E+01 SK= 0.85E-01 mag=      4.000
       N       E                     dE             d eps       ncg     rms          rms(c)
DAV:   1    -0.763432553732E+03    0.57088E+00   -0.27984E-01  1232   0.215E+00    0.339E-01
DAV:   2    -0.763442653059E+03   -0.10099E-01   -0.11296E-01  1200   0.577E-01    0.343E-01
DAV:   3    -0.763441176303E+03    0.14768E-02   -0.27643E-03  1256   0.938E-02    0.858E-01
DAV:   4    -0.763437760179E+03    0.34161E-02   -0.18094E-03  1200   0.918E-02    0.224E-01
DAV:   5    -0.763441582641E+03   -0.38225E-02   -0.98840E-04  1280   0.725E-02    0.112E-01
DAV:   6    -0.763441405751E+03    0.17689E-03   -0.47021E-04  1272   0.388E-02    0.729E-02
DAV:   7    -0.763441460676E+03   -0.54925E-04   -0.70933E-05  1264   0.213E-02    0.653E-02
DAV:   8    -0.763441306176E+03    0.15450E-03   -0.15002E-05  1072   0.961E-03    0.675E-02
DAV:   9    -0.763441221435E+03    0.84741E-04   -0.10187E-05   904   0.778E-03    0.712E-02
DAV:  10    -0.763441157181E+03    0.64254E-04   -0.46884E-06   936   0.434E-03    0.743E-02
DAV:  11    -0.763441336832E+03   -0.17965E-03   -0.78558E-06   816   0.632E-03    0.673E-02
DAV:  12    -0.763441659644E+03   -0.32281E-03   -0.40277E-05  1208   0.121E-02    0.641E-02
DAV:  13    -0.763442013218E+03   -0.35357E-03   -0.70803E-05  1288   0.154E-02    0.886E-02
DAV:  14    -0.763441623887E+03    0.38933E-03   -0.85331E-05  1200   0.197E-02    0.651E-02
DAV:  15    -0.763441402782E+03    0.22110E-03   -0.27018E-04  1280   0.303E-02    0.103E-01
DAV:  16    -0.763440692191E+03    0.71059E-03   -0.44730E-04  1296   0.396E-02    0.193E-01
DAV:  17    -0.763441997863E+03   -0.13057E-02   -0.10206E-03  1216   0.629E-02    0.636E-02
DAV:  18    -0.763442077397E+03   -0.79534E-04   -0.96121E-05  1232   0.174E-02    0.695E-02
DAV:  19    -0.763442208664E+03   -0.13127E-03   -0.22098E-05  1016   0.919E-03    0.631E-02
DAV:  20    -0.763442267989E+03   -0.59325E-04   -0.13833E-05   904   0.687E-03    0.624E-02
DAV:  21    -0.763442350208E+03   -0.82219E-04   -0.26450E-05  1120   0.979E-03    0.713E-02
DAV:  22    -0.763442408639E+03   -0.58431E-04   -0.24181E-05  1040   0.895E-03    0.910E-02
DAV:  23    -0.763442137683E+03    0.27096E-03   -0.71198E-05  1152   0.178E-02    0.641E-02
DAV:  24    -0.763442087370E+03    0.50313E-04   -0.61306E-05  1320   0.137E-02    0.683E-02
DAV:  25    -0.763442027695E+03    0.59675E-04   -0.27495E-05  1168   0.980E-03    0.812E-02
DAV:  26    -0.763441924879E+03    0.10282E-03   -0.22134E-05  1008   0.909E-03    0.979E-02
DAV:  27    -0.763441714394E+03    0.21049E-03   -0.46020E-05  1176   0.129E-02    0.125E-01
DAV:  28    -0.763441600941E+03    0.11345E-03   -0.14627E-05   896   0.735E-03    0.139E-01
DAV:  29    -0.763441656616E+03   -0.55675E-04   -0.41797E-06   776   0.395E-03    0.134E-01
DAV:  30    -0.763441974000E+03   -0.31738E-03   -0.71242E-05  1160   0.170E-02    0.964E-02
DAV:  31    -0.763442231510E+03   -0.25751E-03   -0.15522E-04  1256   0.233E-02    0.638E-02
DAV:  32    -0.763442355094E+03   -0.12358E-03   -0.87292E-05  1336   0.169E-02    0.691E-02
DAV:  33    -0.763442445744E+03   -0.90650E-04   -0.31223E-05  1064   0.110E-02    0.980E-02
DAV:  34    -0.763442552726E+03   -0.10698E-03   -0.29038E-05  1080   0.106E-02    0.150E-01
DAV:  35    -0.763442668645E+03   -0.11592E-03   -0.29740E-05  1080   0.113E-02    0.229E-01
DAV:  36    -0.763442862679E+03   -0.19403E-03   -0.44090E-05  1200   0.136E-02    0.362E-01
DAV:  37    -0.763443210256E+03   -0.34758E-03   -0.77211E-05  1232   0.186E-02    0.587E-01
DAV:  38    -0.763442888715E+03    0.32154E-03   -0.91564E-05  1176   0.231E-02    0.795E-01
DAV:  39    -0.763441376174E+03    0.15125E-02   -0.52222E-05   952   0.198E-02    0.832E-01
DAV:  40    -0.763441482529E+03   -0.10635E-03   -0.22183E-05  1136   0.105E-02    0.945E-01
DAV:  41    -0.763439409582E+03    0.20729E-02   -0.33165E-05   920   0.151E-02    0.838E-01
DAV:  42    -0.763439313746E+03    0.95836E-04   -0.22027E-05   992   0.977E-03    0.713E-01
DAV:  43    -0.763441119300E+03   -0.18056E-02   -0.32588E-05   896   0.150E-02    0.794E-01
DAV:  44    -0.763440846823E+03    0.27248E-03   -0.43080E-06   760   0.508E-03    0.818E-01
DAV:  45    -0.763440325949E+03    0.52087E-03   -0.24705E-06   736   0.432E-03    0.787E-01
DAV:  46    -0.763440605790E+03   -0.27984E-03   -0.81767E-07   736   0.222E-03    0.798E-01
DAV:  47    -0.763440411752E+03    0.19404E-03   -0.44477E-07   832   0.141E-03    0.778E-01
DAV:  48    -0.763440857736E+03   -0.44598E-03   -0.18086E-06   736   0.334E-03    0.818E-01
DAV:  49    -0.763440575273E+03    0.28246E-03   -0.15980E-06   736   0.324E-03    0.823E-01
DAV:  50    -0.763440772760E+03   -0.19749E-03   -0.20188E-06   824   0.275E-03    0.863E-01
DAV:  51    -0.763440402872E+03    0.36989E-03   -0.22784E-06   736   0.410E-03    0.864E-01
DAV:  52    -0.763439612718E+03    0.79015E-03   -0.84364E-06   824   0.633E-03    0.768E-01
DAV:  53    -0.763440115371E+03   -0.50265E-03   -0.12530E-05   864   0.881E-03    0.715E-01
DAV:  54    -0.763440613523E+03   -0.49815E-03   -0.57736E-06   832   0.644E-03    0.694E-01
DAV:  55    -0.763441115071E+03   -0.50155E-03   -0.30950E-06   840   0.486E-03    0.727E-01
DAV:  56    -0.763441000241E+03    0.11483E-03   -0.87675E-07   744   0.232E-03    0.738E-01
DAV:  57    -0.763441139446E+03   -0.13921E-03   -0.21461E-06   808   0.292E-03    0.779E-01
DAV:  58    -0.763440678569E+03    0.46088E-03   -0.26589E-06   784   0.447E-03    0.765E-01
DAV:  59    -0.763440535537E+03    0.14303E-03   -0.75475E-07   928   0.186E-03    0.738E-01
DAV:  60    -0.763440548658E+03   -0.13121E-04   -0.20789E-06   736   0.325E-03    0.701E-01
DAV:  61    -0.763440681613E+03   -0.13295E-03   -0.29772E-06   744   0.425E-03    0.667E-01
DAV:  62    -0.763440248381E+03    0.43323E-03   -0.22421E-05   960   0.888E-03    0.527E-01
DAV:  63    -0.763441467612E+03   -0.12192E-02   -0.24558E-05   880   0.138E-02    0.573E-01
DAV:  64    -0.763441332704E+03    0.13491E-03   -0.93166E-07   880   0.255E-03    0.564E-01
DAV:  65    -0.763441845082E+03   -0.51238E-03   -0.71706E-06   824   0.558E-03    0.655E-01
DAV:  66    -0.763441259425E+03    0.58566E-03   -0.85807E-06   792   0.791E-03    0.651E-01
DAV:  67    -0.763440382034E+03    0.87739E-03   -0.22814E-05  1032   0.996E-03    0.504E-01
DAV:  68    -0.763440098420E+03    0.28361E-03   -0.14303E-04  1168   0.225E-02    0.235E-01
DAV:  69    -0.763441303403E+03   -0.12050E-02   -0.17030E-04  1184   0.295E-02    0.101E-01
DAV:  70    -0.763442022497E+03   -0.71909E-03   -0.78465E-05  1264   0.200E-02    0.691E-02
DAV:  71    -0.763442254184E+03   -0.23169E-03   -0.11651E-05   960   0.864E-03    0.671E-02
DAV:  72    -0.763442352991E+03   -0.98807E-04   -0.78083E-06   856   0.701E-03    0.756E-02
DAV:  73    -0.763442350914E+03    0.20767E-05   -0.22856E-06   848   0.299E-03
   28 T=   496. E= -.76852995E+03 F= -.76672704E+03 E0= -.76672667E+03  EK= 0.57033E+01 SP= -.75E+01 SK= 0.21E-01 mag=      4.000
       N       E                     dE             d eps       ncg     rms          rms(c)
DAV:   1    -0.762967895699E+03    0.47446E+00   -0.15003E-01  1216   0.198E+00    0.652E-01
DAV:   2    -0.762983968873E+03   -0.16073E-01   -0.13064E-01  1216   0.636E-01    0.123E+00
DAV:   3    -0.762969788111E+03    0.14181E-01   -0.19796E-02  1176   0.268E-01    0.116E+00
DAV:   4    -0.762952321342E+03    0.17467E-01   -0.47368E-03  1360   0.110E-01    0.388E-01
DAV:   5    -0.762971773167E+03   -0.19452E-01   -0.37171E-03  1184   0.122E-01    0.308E-01
DAV:   6    -0.762975068633E+03   -0.32955E-02   -0.21585E-03  1240   0.802E-02    0.521E-01
DAV:   7    -0.762974179155E+03    0.88948E-03   -0.66437E-04  1184   0.575E-02    0.252E-01
DAV:   8    -0.762975819221E+03   -0.16401E-02   -0.15512E-04  1232   0.311E-02    0.217E-01
DAV:   9    -0.762975480375E+03    0.33885E-03   -0.53776E-05  1280   0.145E-02    0.197E-01
DAV:  10    -0.762974950971E+03    0.52940E-03   -0.36534E-05  1216   0.121E-02    0.179E-01
DAV:  11    -0.762974847043E+03    0.10393E-03   -0.12695E-05   976   0.750E-03    0.177E-01
DAV:  12    -0.762974901660E+03   -0.54617E-04   -0.30534E-06   960   0.379E-03    0.177E-01
DAV:  13    -0.762974898067E+03    0.35929E-05   -0.93545E-07   840   0.199E-03
   29 T=   460. E= -.76852730E+03 F= -.76625791E+03 E0= -.76625774E+03  EK= 0.52862E+01 SP= -.76E+01 SK= 0.38E-03 mag=      4.151
       N       E                     dE             d eps       ncg     rms          rms(c)
DAV:   1    -0.762509812620E+03    0.46509E+00   -0.22654E-01  1256   0.202E+00    0.500E-01
DAV:   2    -0.762523459394E+03   -0.13647E-01   -0.12887E-01  1232   0.633E-01    0.423E-01
DAV:   3    -0.762507764007E+03    0.15695E-01   -0.66797E-03  1352   0.138E-01    0.123E+00
DAV:   4    -0.762514634432E+03   -0.68704E-02   -0.17185E-02  1200   0.223E-01    0.335E-01
DAV:   5    -0.762522075176E+03   -0.74407E-02   -0.37309E-03  1352   0.119E-01    0.409E-01
DAV:   6    -0.762507100306E+03    0.14975E-01   -0.21391E-03  1304   0.842E-02    0.552E-01
DAV:   7    -0.762503324399E+03    0.37759E-02   -0.30159E-04  1416   0.297E-02    0.585E-01
DAV:   8    -0.762515601116E+03   -0.12277E-01   -0.12799E-03  1264   0.713E-02    0.428E-01
DAV:   9    -0.762528607249E+03   -0.13006E-01   -0.11133E-02  1240   0.201E-01    0.584E-01
DAV:  10    -0.762532520446E+03   -0.39132E-02   -0.34101E-03  1400   0.989E-02    0.133E+00
DAV:  11    -0.762510298986E+03    0.22221E-01   -0.22601E-02  1200   0.253E-01    0.408E-01
DAV:  12    -0.762514781037E+03   -0.44821E-02   -0.52969E-03  1376   0.133E-01    0.600E-01
DAV:  13    -0.762513615334E+03    0.11657E-02   -0.76569E-04  1320   0.530E-02    0.714E-01
DAV:  14    -0.762509324233E+03    0.42911E-02   -0.61624E-04  1304   0.485E-02    0.837E-01
DAV:  15    -0.762504425876E+03    0.48984E-02   -0.56337E-04  1368   0.450E-02    0.937E-01
DAV:  16    -0.762510173844E+03   -0.57480E-02   -0.63267E-04  1232   0.497E-02    0.823E-01
DAV:  17    -0.762515047308E+03   -0.48735E-02   -0.76232E-04  1304   0.509E-02    0.715E-01
DAV:  18    -0.762522420285E+03   -0.73730E-02   -0.21074E-03  1344   0.895E-02    0.499E-01
DAV:  19    -0.762529427634E+03   -0.70073E-02   -0.62835E-03  1264   0.152E-01    0.160E-01
DAV:  20    -0.762531454048E+03   -0.20264E-02   -0.23453E-03  1360   0.841E-02    0.528E-01
DAV:  21    -0.762530349878E+03    0.11042E-02   -0.21911E-04  1144   0.398E-02    0.604E-01
DAV:  22    -0.762528813445E+03    0.15364E-02   -0.42707E-05  1024   0.178E-02    0.538E-01
DAV:  23    -0.762527698250E+03    0.11152E-02   -0.16181E-04  1392   0.223E-02    0.304E-01
DAV:  24    -0.762527598323E+03    0.99927E-04   -0.62249E-04  1208   0.462E-02    0.173E-01
DAV:  25    -0.762528760012E+03   -0.11617E-02   -0.17913E-04  1184   0.292E-02    0.180E-01
DAV:  26    -0.762528927309E+03   -0.16730E-03   -0.14461E-05  1016   0.911E-03    0.187E-01
DAV:  27    -0.762529303254E+03   -0.37594E-03   -0.25237E-05  1064   0.111E-02    0.172E-01
DAV:  28    -0.762529153997E+03    0.14926E-03   -0.61253E-06   904   0.556E-03    0.180E-01
DAV:  29    -0.762528961014E+03    0.19298E-03   -0.20213E-05   992   0.875E-03    0.192E-01
DAV:  30    -0.762528534729E+03    0.42629E-03   -0.69752E-05  1320   0.157E-02    0.222E-01
DAV:  31    -0.762528325439E+03    0.20929E-03   -0.24247E-05  1104   0.892E-03    0.238E-01
DAV:  32    -0.762528309927E+03    0.15512E-04   -0.24368E-06   944   0.311E-03    0.240E-01
DAV:  33    -0.762528232537E+03    0.77390E-04   -0.21077E-06   816   0.285E-03    0.245E-01
DAV:  34    -0.762528225355E+03    0.71816E-05   -0.70158E-07   640   0.156E-03
   30 T=   419. E= -.76852171E+03 F= -.76580975E+03 E0= -.76580974E+03  EK= 0.48218E+01 SP= -.75E+01 SK= 0.60E-02 mag=      4.278
       N       E                     dE             d eps       ncg     rms          rms(c)
DAV:   1    -0.762103577565E+03    0.42465E+00   -0.37698E-01  1304   0.211E+00    0.417E-01
DAV:   2    -0.762108093647E+03   -0.45161E-02   -0.12536E-01  1200   0.626E-01    0.258E-01
DAV:   3    -0.762099625069E+03    0.84686E-02   -0.29463E-03  1304   0.108E-01    0.173E-01
DAV:   4    -0.762097088372E+03    0.25367E-02   -0.86617E-04  1224   0.559E-02    0.989E-02
DAV:   5    -0.762101541318E+03   -0.44529E-02   -0.25490E-04  1240   0.333E-02    0.613E-02
DAV:   6    -0.762106365230E+03   -0.48239E-02   -0.12253E-04  1256   0.222E-02    0.543E-02
DAV:   7    -0.762109477584E+03   -0.31124E-02   -0.81922E-05  1328   0.170E-02    0.759E-02
DAV:   8    -0.762109373644E+03    0.10394E-03   -0.19269E-04  1208   0.271E-02    0.465E-02
DAV:   9    -0.762115829539E+03   -0.64559E-02   -0.42569E-04  1296   0.340E-02    0.575E-02
DAV:  10    -0.762117874041E+03   -0.20445E-02   -0.29820E-04  1368   0.310E-02    0.967E-02
DAV:  11    -0.762118041871E+03   -0.16783E-03   -0.65492E-05  1256   0.160E-02    0.781E-02
DAV:  12    -0.762118505908E+03   -0.46404E-03   -0.65925E-05  1312   0.155E-02    0.588E-02
DAV:  13    -0.762119802904E+03   -0.12970E-02   -0.29229E-04  1256   0.329E-02    0.524E-02
DAV:  14    -0.762120553672E+03   -0.75077E-03   -0.36861E-04  1328   0.347E-02    0.149E-01
DAV:  15    -0.762120351186E+03    0.20249E-03   -0.76883E-05  1208   0.197E-02    0.121E-01
DAV:  16    -0.762120354366E+03   -0.31806E-05   -0.22742E-06  1016   0.293E-03
   31 T=   379. E= -.76850617E+03 F= -.76540046E+03 E0= -.76539976E+03  EK= 0.43621E+01 SP= -.75E+01 SK= 0.22E-01 mag=      3.937
       N       E                     dE             d eps       ncg     rms          rms(c)
DAV:   1    -0.761972967051E+03    0.14738E+00   -0.70730E-01  1288   0.226E+00    0.111E+00
DAV:   2    -0.761935987867E+03    0.36979E-01   -0.28601E-01  1232   0.837E-01    0.699E-01
DAV:   3    -0.761886786751E+03    0.49201E-01   -0.30279E-02  1288   0.315E-01    0.359E-01
DAV:   4    -0.761845371960E+03    0.41415E-01   -0.12066E-02  1336   0.166E-01    0.239E-01
DAV:   5    -0.761872791947E+03   -0.27420E-01   -0.56276E-03  1240   0.957E-02    0.174E-01
DAV:   6    -0.761918205638E+03   -0.45414E-01   -0.71645E-03  1240   0.829E-02    0.144E-01
DAV:   7    -0.761948928009E+03   -0.30722E-01   -0.49033E-03  1400   0.594E-02    0.158E-01
DAV:   8    -0.761938767624E+03    0.10160E-01   -0.24079E-03  1200   0.452E-02    0.153E-01
DAV:   9    -0.761933564145E+03    0.52035E-02   -0.14049E-02  1352   0.823E-02    0.107E-01
DAV:  10    -0.761974658313E+03   -0.41094E-01   -0.74747E-03  1328   0.737E-02    0.612E-02
DAV:  11    -0.762000517720E+03   -0.25859E-01   -0.12529E-03  1288   0.450E-02    0.328E-02
DAV:  12    -0.762004070065E+03   -0.35523E-02   -0.12857E-03  1320   0.296E-02    0.173E-02
DAV:  13    -0.762004463534E+03   -0.39347E-03   -0.61615E-05  1136   0.134E-02    0.109E-02
DAV:  14    -0.762004486974E+03   -0.23440E-04   -0.46931E-05   920   0.627E-03    0.937E-03
DAV:  15    -0.762004506307E+03   -0.19334E-04   -0.46770E-06   952   0.304E-03    0.903E-03
DAV:  16    -0.762004533447E+03   -0.27140E-04   -0.10794E-06   904   0.156E-03    0.893E-03
DAV:  17    -0.762004546902E+03   -0.13455E-04   -0.87326E-07   912   0.110E-03    0.890E-03
DAV:  18    -0.762004554983E+03   -0.80817E-05   -0.11149E-06   912   0.108E-03
   32 T=   359. E= -.76852680E+03 F= -.76528312E+03 E0= -.76528312E+03  EK= 0.41343E+01 SP= -.74E+01 SK= 0.38E-01 mag=      2.000
       N       E                     dE             d eps       ncg     rms          rms(c)
DAV:   1    -0.762280173879E+03   -0.27563E+00   -0.55865E-01  1296   0.220E+00    0.262E+00
DAV:   2    -0.762310606806E+03   -0.30433E-01   -0.72650E-01  1312   0.135E+00    0.113E+00
DAV:   3    -0.762310818950E+03   -0.21214E-03   -0.13554E-01  1296   0.580E-01    0.676E-01
DAV:   4    -0.762311379777E+03   -0.56083E-03   -0.50808E-02  1296   0.293E-01    0.443E-01
DAV:   5    -0.762313732459E+03   -0.23527E-02   -0.19488E-02  1320   0.179E-01    0.247E-01
DAV:   6    -0.762317815950E+03   -0.40835E-02   -0.12690E-02  1320   0.134E-01    0.184E-01
DAV:   7    -0.762321493863E+03   -0.36779E-02   -0.81695E-03  1320   0.840E-02    0.199E-01
DAV:   8    -0.762322452787E+03   -0.95892E-03   -0.12297E-03  1392   0.398E-02    0.199E-01
DAV:   9    -0.762321072119E+03    0.13807E-02   -0.22388E-03  1160   0.400E-02    0.186E-01
DAV:  10    -0.762319723901E+03    0.13482E-02   -0.16385E-02  1320   0.868E-02    0.131E-01
DAV:  11    -0.762322570924E+03   -0.28470E-02   -0.61945E-03  1256   0.754E-02    0.792E-02
DAV:  12    -0.762324450902E+03   -0.18800E-02   -0.32735E-03  1328   0.644E-02    0.641E-02
DAV:  13    -0.762325031377E+03   -0.58047E-03   -0.17354E-03  1376   0.462E-02    0.494E-02
DAV:  14    -0.762325389027E+03   -0.35765E-03   -0.35467E-03  1344   0.562E-02    0.428E-02
DAV:  15    -0.762325552953E+03   -0.16393E-03   -0.17450E-03  1416   0.423E-02    0.344E-02
DAV:  16    -0.762325602262E+03   -0.49309E-04   -0.15051E-03  1368   0.367E-02    0.368E-02
DAV:  17    -0.762325706512E+03   -0.10425E-03   -0.20288E-04  1248   0.191E-02    0.360E-02
DAV:  18    -0.762325555053E+03    0.15146E-03   -0.11970E-03  1240   0.350E-02    0.433E-02
DAV:  19    -0.762325666031E+03   -0.11098E-03   -0.34420E-03  1240   0.565E-02    0.336E-02
DAV:  20    -0.762325453095E+03    0.21294E-03   -0.73574E-03  1336   0.864E-02    0.322E-02
DAV:  21    -0.762325907711E+03   -0.45462E-03   -0.12883E-03  1288   0.423E-02    0.258E-02
DAV:  22    -0.762325545191E+03    0.36252E-03   -0.80878E-03  1344   0.838E-02    0.609E-02
DAV:  23    -0.762325792651E+03   -0.24746E-03   -0.11131E-03  1248   0.465E-02    0.105E-01
DAV:  24    -0.762325918737E+03   -0.12609E-03   -0.64742E-05  1064   0.150E-02    0.103E-01
DAV:  25    -0.762325896645E+03    0.22093E-04   -0.12897E-05   920   0.599E-03    0.108E-01
DAV:  26    -0.762325991593E+03   -0.94949E-04   -0.31298E-04  1248   0.216E-02    0.972E-02
DAV:  27    -0.762326034988E+03   -0.43395E-04   -0.23023E-03  1320   0.570E-02    0.333E-02
DAV:  28    -0.762326157953E+03   -0.12296E-03   -0.96543E-04  1256   0.345E-02    0.391E-02
DAV:  29    -0.762326180402E+03   -0.22450E-04   -0.77479E-05  1136   0.138E-02    0.330E-02
DAV:  30    -0.762326183523E+03   -0.31212E-05   -0.29162E-04  1232   0.171E-02    0.342E-02
DAV:  31    -0.762326198465E+03   -0.14942E-04   -0.14327E-05   880   0.727E-03    0.314E-02
DAV:  32    -0.762326206267E+03   -0.78015E-05   -0.10886E-04  1048   0.105E-02    0.310E-02
DAV:  33    -0.762326211293E+03   -0.50262E-05   -0.34868E-04  1296   0.180E-02    0.272E-02
DAV:  34    -0.762326161654E+03    0.49639E-04   -0.15222E-03  1304   0.369E-02    0.270E-02
DAV:  35    -0.762326270402E+03   -0.10875E-03   -0.79732E-05  1088   0.159E-02    0.220E-02
DAV:  36    -0.762326278262E+03   -0.78596E-05   -0.18567E-04  1344   0.133E-02    0.166E-02
DAV:  37    -0.762326282425E+03   -0.41632E-05   -0.26964E-04  1320   0.164E-02    0.119E-02
DAV:  38    -0.762326298494E+03   -0.16068E-04   -0.70267E-05  1064   0.923E-03    0.109E-02
DAV:  39    -0.762326301897E+03   -0.34032E-05   -0.61102E-05  1064   0.778E-03
   33 T=   376. E= -.76854611E+03 F= -.76560311E+03 E0= -.76560311E+03  EK= 0.43235E+01 SP= -.73E+01 SK= 0.59E-01 mag=     -2.000
       N       E                     dE             d eps       ncg     rms          rms(c)
DAV:   1    -0.762112237865E+03    0.21406E+00   -0.56093E-01  1240   0.223E+00    0.514E+00
DAV:   2    -0.760586611717E+03    0.15256E+01   -0.24704E+00  1200   0.257E+00    0.189E+00
DAV:   3    -0.759663297213E+03    0.92331E+00   -0.32463E-01  1328   0.897E-01    0.129E+00
DAV:   4    -0.759926390866E+03   -0.26309E+00   -0.10614E-01  1272   0.456E-01    0.895E-01
DAV:   5    -0.760888727424E+03   -0.96234E+00   -0.18143E-01  1248   0.457E-01    0.586E-01
DAV:   6    -0.761837090799E+03   -0.94836E+00   -0.99834E-02  1296   0.352E-01    0.372E-01
DAV:   7    -0.762723691517E+03   -0.88660E+00   -0.10719E-01  1328   0.353E-01    0.154E-01
DAV:   8    -0.762843707873E+03   -0.12002E+00   -0.12536E-02  1392   0.140E-01    0.843E-02
DAV:   9    -0.762860382567E+03   -0.16675E-01   -0.14878E-03  1368   0.544E-02    0.430E-02
DAV:  10    -0.762863229267E+03   -0.28467E-02   -0.37433E-04  1288   0.247E-02    0.231E-02
DAV:  11    -0.762864034021E+03   -0.80475E-03   -0.22644E-04  1328   0.181E-02    0.142E-02
DAV:  12    -0.762864314719E+03   -0.28070E-03   -0.61742E-05  1144   0.103E-02    0.120E-02
DAV:  13    -0.762864593628E+03   -0.27891E-03   -0.49690E-05  1056   0.896E-03    0.962E-03
DAV:  14    -0.762864761894E+03   -0.16827E-03   -0.29210E-05  1040   0.710E-03    0.897E-03
DAV:  15    -0.762864825941E+03   -0.64047E-04   -0.80488E-06   944   0.481E-03    0.879E-03
DAV:  16    -0.762864862482E+03   -0.36541E-04   -0.41334E-06   944   0.349E-03    0.867E-03
DAV:  17    -0.762864882541E+03   -0.20059E-04   -0.15720E-06   920   0.219E-03    0.864E-03
DAV:  18    -0.762864891253E+03   -0.87123E-05   -0.70747E-07   904   0.150E-03
   34 T=   406. E= -.76858612E+03 F= -.76613990E+03 E0= -.76613990E+03  EK= 0.46726E+01 SP= -.72E+01 SK= 0.95E-01 mag=     -2.000
       N       E                     dE             d eps       ncg     rms          rms(c)
DAV:   1    -0.763052081129E+03   -0.18720E+00   -0.10985E+00  1232   0.242E+00    0.297E+00
DAV:   2    -0.763267510905E+03   -0.21543E+00   -0.73537E-01  1280   0.160E+00    0.645E-01
DAV:   3    -0.763302959519E+03   -0.35449E-01   -0.69447E-02  1232   0.491E-01    0.409E-01
DAV:   4    -0.763305852470E+03   -0.28930E-02   -0.61953E-03  1304   0.165E-01    0.190E-01
DAV:   5    -0.763311154288E+03   -0.53018E-02   -0.18193E-03  1256   0.772E-02    0.799E-02
DAV:   6    -0.763315901846E+03   -0.47476E-02   -0.35058E-04  1264   0.367E-02    0.409E-02
DAV:   7    -0.763319101567E+03   -0.31997E-02   -0.86863E-05  1240   0.181E-02    0.229E-02
DAV:   8    -0.763321590288E+03   -0.24887E-02   -0.45160E-05  1096   0.103E-02    0.154E-02
DAV:   9    -0.763323289890E+03   -0.16996E-02   -0.35894E-05  1080   0.748E-03    0.110E-02
DAV:  10    -0.763323911483E+03   -0.62159E-03   -0.13240E-05   984   0.480E-03    0.949E-03
DAV:  11    -0.763324130692E+03   -0.21921E-03   -0.62948E-06   960   0.349E-03    0.883E-03
DAV:  12    -0.763324190263E+03   -0.59571E-04   -0.30491E-06   904   0.254E-03    0.861E-03
DAV:  13    -0.763324203033E+03   -0.12770E-04   -0.82785E-07   920   0.142E-03    0.858E-03
DAV:  14    -0.763324208932E+03   -0.58985E-05   -0.35472E-07   832   0.873E-04
   35 T=   419. E= -.76869725E+03 F= -.76659774E+03 E0= -.76659774E+03  EK= 0.48217E+01 SP= -.71E+01 SK= 0.15E+00 mag=     -0.000
       N       E                     dE             d eps       ncg     rms          rms(c)
DAV:   1    -0.763013154202E+03    0.31105E+00   -0.54315E-01  1320   0.250E+00    0.364E+00
DAV:   2    -0.762806777564E+03    0.20638E+00   -0.10871E+00  1248   0.188E+00    0.117E+00
DAV:   3    -0.762347271926E+03    0.45951E+00   -0.16292E-01  1312   0.648E-01    0.794E-01
DAV:   4    -0.762351365478E+03   -0.40936E-02   -0.28909E-02  1312   0.297E-01    0.518E-01
DAV:   5    -0.762686069015E+03   -0.33470E+00   -0.29103E-02  1224   0.217E-01    0.322E-01
DAV:   6    -0.763131236985E+03   -0.44517E+00   -0.24569E-02  1248   0.168E-01    0.180E-01
DAV:   7    -0.763403601001E+03   -0.27236E+00   -0.13677E-02  1304   0.126E-01    0.753E-02
DAV:   8    -0.763455083955E+03   -0.51483E-01   -0.27572E-03  1328   0.601E-02    0.301E-02
DAV:   9    -0.763458768991E+03   -0.36850E-02   -0.25360E-04  1224   0.218E-02    0.160E-02
DAV:  10    -0.763459076814E+03   -0.30782E-03   -0.39902E-05  1152   0.106E-02    0.108E-02
DAV:  11    -0.763459275001E+03   -0.19819E-03   -0.90950E-06   992   0.647E-03    0.937E-03
DAV:  12    -0.763459431545E+03   -0.15654E-03   -0.84641E-06   968   0.490E-03    0.889E-03
DAV:  13    -0.763459502531E+03   -0.70986E-04   -0.42082E-06   936   0.347E-03    0.868E-03
DAV:  14    -0.763459565323E+03   -0.62792E-04   -0.50143E-06   936   0.331E-03    0.859E-03
DAV:  15    -0.763459580056E+03   -0.14733E-04   -0.14316E-06   928   0.207E-03    0.854E-03
DAV:  16    -0.763459592986E+03   -0.12930E-04   -0.91527E-07   880   0.161E-03    0.852E-03
DAV:  17    -0.763459597350E+03   -0.43641E-05   -0.35643E-07   896   0.101E-03
   36 T=   410. E= -.76869013E+03 F= -.76673221E+03 E0= -.76673221E+03  EK= 0.47178E+01 SP= -.69E+01 SK= 0.22E+00 mag=     -0.000
       N       E                     dE             d eps       ncg     rms          rms(c)
DAV:   1    -0.763395048381E+03    0.64545E-01   -0.61073E-01  1288   0.230E+00    0.471E-01
DAV:   2    -0.763405739815E+03   -0.10691E-01   -0.12743E-01  1224   0.656E-01    0.258E-01
DAV:   3    -0.763407307860E+03   -0.15680E-02   -0.44040E-03  1296   0.131E-01    0.153E-01
DAV:   4    -0.763407135857E+03    0.17200E-03   -0.15578E-03  1304   0.638E-02    0.919E-02
DAV:   5    -0.763407625915E+03   -0.49006E-03   -0.10020E-03  1296   0.425E-02    0.392E-02
DAV:   6    -0.763408177981E+03   -0.55207E-03   -0.25247E-04  1312   0.209E-02    0.237E-02
DAV:   7    -0.763408660876E+03   -0.48289E-03   -0.14236E-04  1272   0.132E-02    0.151E-02
DAV:   8    -0.763408970920E+03   -0.31004E-03   -0.75809E-05  1080   0.978E-03    0.115E-02
DAV:   9    -0.763409137428E+03   -0.16651E-03   -0.54782E-05   984   0.826E-03    0.937E-03
DAV:  10    -0.763409191443E+03   -0.54015E-04   -0.17450E-05   936   0.562E-03    0.877E-03
DAV:  11    -0.763409209559E+03   -0.18116E-04   -0.82486E-06   920   0.402E-03    0.847E-03
DAV:  12    -0.763409213642E+03   -0.40834E-05   -0.22911E-06   880   0.276E-03
   37 T=   391. E= -.76858478E+03 F= -.76668136E+03 E0= -.76668136E+03  EK= 0.44932E+01 SP= -.67E+01 SK= 0.29E+00 mag=     -2.000
       N       E                     dE             d eps       ncg     rms          rms(c)
DAV:   1    -0.762820933366E+03    0.58828E+00   -0.27809E+00  1192   0.244E+00    0.451E+00
DAV:   2    -0.762353070849E+03    0.46786E+00   -0.16548E+00  1232   0.225E+00    0.144E+00
DAV:   3    -0.761685992942E+03    0.66708E+00   -0.25530E-01  1320   0.795E-01    0.993E-01
DAV:   4    -0.761768469967E+03   -0.82477E-01   -0.55453E-02  1312   0.369E-01    0.666E-01
DAV:   5    -0.762321170432E+03   -0.55270E+00   -0.76829E-02  1216   0.322E-01    0.404E-01
DAV:   6    -0.763040238360E+03   -0.71907E+00   -0.63177E-02  1264   0.263E-01    0.210E-01
DAV:   7    -0.763435889266E+03   -0.39565E+00   -0.23197E-02  1344   0.168E-01    0.886E-02
DAV:   8    -0.763510889504E+03   -0.75000E-01   -0.40361E-03  1320   0.756E-02    0.339E-02
DAV:   9    -0.763513815238E+03   -0.29257E-02   -0.37757E-04  1248   0.272E-02    0.188E-02
DAV:  10    -0.763514238167E+03   -0.42293E-03   -0.39780E-05  1136   0.119E-02    0.126E-02
DAV:  11    -0.763514547949E+03   -0.30978E-03   -0.28137E-05  1024   0.883E-03    0.997E-03
DAV:  12    -0.763514657786E+03   -0.10984E-03   -0.87033E-06   992   0.578E-03    0.921E-03
DAV:  13    -0.763514864715E+03   -0.20693E-03   -0.12476E-05   968   0.497E-03    0.876E-03
DAV:  14    -0.763514954026E+03   -0.89311E-04   -0.63011E-06   928   0.401E-03    0.858E-03
DAV:  15    -0.763514979466E+03   -0.25440E-04   -0.25013E-06   912   0.284E-03    0.849E-03
DAV:  16    -0.763514999445E+03   -0.19979E-04   -0.15385E-06   904   0.218E-03    0.847E-03
DAV:  17    -0.763515007413E+03   -0.79679E-05   -0.64516E-07   912   0.144E-03
   38 T=   374. E= -.76858410E+03 F= -.76678678E+03 E0= -.76678678E+03  EK= 0.42992E+01 SP= -.65E+01 SK= 0.36E+00 mag=     -2.000
       N       E                     dE             d eps       ncg     rms          rms(c)
DAV:   1    -0.763516101003E+03   -0.11016E-02   -0.57073E-01  1248   0.188E+00    0.165E+00
DAV:   2    -0.763608741091E+03   -0.92640E-01   -0.54144E-01  1232   0.990E-01    0.817E-01
DAV:   3    -0.763650441501E+03   -0.41700E-01   -0.20267E-01  1328   0.509E-01    0.691E-01
DAV:   4    -0.763687441330E+03   -0.37000E-01   -0.49703E-01  1328   0.599E-01    0.656E-01
DAV:   5    -0.763732933976E+03   -0.45493E-01   -0.64625E-01  1432   0.709E-01    0.341E-01
DAV:   6    -0.763750617806E+03   -0.17684E-01   -0.37340E-02  1160   0.305E-01    0.390E-01
DAV:   7    -0.763759096694E+03   -0.84789E-02   -0.33527E-02  1264   0.217E-01    0.130E-01
DAV:   8    -0.763763262386E+03   -0.41657E-02   -0.45521E-03  1224   0.107E-01    0.169E-01
DAV:   9    -0.763765911515E+03   -0.26491E-02   -0.19683E-02  1312   0.173E-01    0.891E-02
DAV:  10    -0.763767794169E+03   -0.18827E-02   -0.35471E-03  1200   0.895E-02    0.452E-02
DAV:  11    -0.763768383799E+03   -0.58963E-03   -0.10085E-04  1224   0.165E-02    0.247E-02
DAV:  12    -0.763768825853E+03   -0.44205E-03   -0.26363E-04  1288   0.223E-02    0.128E-02
DAV:  13    -0.763768964117E+03   -0.13826E-03   -0.19572E-05  1064   0.870E-03    0.105E-02
DAV:  14    -0.763769034892E+03   -0.70774E-04   -0.78307E-06   928   0.420E-03    0.879E-03
DAV:  15    -0.763769067581E+03   -0.32689E-04   -0.12683E-06   912   0.166E-03    0.912E-03
DAV:  16    -0.763769075205E+03   -0.76242E-05   -0.20918E-06   928   0.213E-03
   39 T=   360. E= -.76867910E+03 F= -.76704026E+03 E0= -.76704026E+03  EK= 0.41431E+01 SP= -.62E+01 SK= 0.41E+00 mag=     -0.001
       N       E                     dE             d eps       ncg     rms          rms(c)
DAV:   1    -0.762295613935E+03    0.14735E+01   -0.11815E+00  1216   0.259E+00    0.587E+00
DAV:   2    -0.762924046775E+03   -0.62843E+00   -0.29714E+00  1216   0.297E+00    0.167E+00
DAV:   3    -0.762497019855E+03    0.42703E+00   -0.64785E-01  1336   0.115E+00    0.111E+00
DAV:   4    -0.762628989243E+03   -0.13197E+00   -0.91530E-02  1328   0.515E-01    0.537E-01
DAV:   5    -0.763009835851E+03   -0.38085E+00   -0.29101E-02  1256   0.235E-01    0.385E-01
DAV:   6    -0.763566904080E+03   -0.55707E+00   -0.39139E-02  1232   0.207E-01    0.223E-01
DAV:   7    -0.763848798454E+03   -0.28189E+00   -0.17101E-02  1296   0.141E-01    0.803E-02
DAV:   8    -0.763895120106E+03   -0.46322E-01   -0.20791E-03  1360   0.599E-02    0.409E-02
DAV:   9    -0.763903811314E+03   -0.86912E-02   -0.52505E-04  1248   0.304E-02    0.186E-02
DAV:  10    -0.763904452514E+03   -0.64120E-03   -0.70322E-05  1168   0.134E-02    0.118E-02
DAV:  11    -0.763904764462E+03   -0.31195E-03   -0.14060E-05  1032   0.682E-03    0.990E-03
DAV:  12    -0.763904995710E+03   -0.23125E-03   -0.86432E-06   960   0.475E-03    0.917E-03
DAV:  13    -0.763905113307E+03   -0.11760E-03   -0.64471E-06   936   0.357E-03    0.895E-03
DAV:  14    -0.763905159532E+03   -0.46225E-04   -0.36846E-06   912   0.292E-03    0.884E-03
DAV:  15    -0.763905184068E+03   -0.24536E-04   -0.21547E-06   928   0.211E-03    0.879E-03
DAV:  16    -0.763905200078E+03   -0.16010E-04   -0.83808E-07   896   0.148E-03    0.877E-03
DAV:  17    -0.763905207026E+03   -0.69484E-05   -0.38306E-07   896   0.103E-03
   40 T=   344. E= -.76868088E+03 F= -.76717562E+03 E0= -.76717562E+03  EK= 0.39543E+01 SP= -.59E+01 SK= 0.46E+00 mag=     -0.000
       N       E                     dE             d eps       ncg     rms          rms(c)
DAV:   1    -0.763865625922E+03    0.39574E-01   -0.11366E+00  1296   0.193E+00    0.645E-01
DAV:   2    -0.763868220684E+03   -0.25948E-02   -0.12731E-01  1208   0.642E-01    0.283E-01
DAV:   3    -0.763861014816E+03    0.72059E-02   -0.58800E-03  1264   0.159E-01    0.167E-01
DAV:   4    -0.763857172101E+03    0.38427E-02   -0.10803E-03  1280   0.633E-02    0.110E-01
DAV:   5    -0.763860439085E+03   -0.32670E-02   -0.32987E-04  1224   0.340E-02    0.598E-02
DAV:   6    -0.763869459856E+03   -0.90208E-02   -0.26374E-04  1232   0.217E-02    0.394E-02
DAV:   7    -0.763876780702E+03   -0.73208E-02   -0.18940E-04  1168   0.158E-02    0.272E-02
DAV:   8    -0.763883632672E+03   -0.68520E-02   -0.38147E-04  1232   0.193E-02    0.193E-02
DAV:   9    -0.763885198165E+03   -0.15655E-02   -0.18098E-04  1240   0.120E-02    0.189E-02
DAV:  10    -0.763885357109E+03   -0.15894E-03   -0.31273E-05  1016   0.586E-03    0.194E-02
DAV:  11    -0.763885353160E+03    0.39486E-05   -0.12805E-04  1056   0.101E-02    0.202E-02
DAV:  12    -0.763885350653E+03    0.25070E-05   -0.22082E-05  1048   0.503E-03
   41 T=   322. E= -.76858717E+03 F= -.76715489E+03 E0= -.76715489E+03  EK= 0.37078E+01 SP= -.56E+01 SK= 0.50E+00 mag=     -1.992
       N       E                     dE             d eps       ncg     rms          rms(c)
DAV:   1    -0.763296612038E+03    0.58874E+00   -0.32348E+00  1256   0.223E+00    0.476E+00
DAV:   2    -0.761898035530E+03    0.13986E+01   -0.21886E+00  1208   0.241E+00    0.179E+00
DAV:   3    -0.760974585870E+03    0.92345E+00   -0.30699E-01  1320   0.852E-01    0.123E+00
DAV:   4    -0.761217972226E+03   -0.24339E+00   -0.87553E-02  1312   0.451E-01    0.831E-01
DAV:   5    -0.762144943611E+03   -0.92697E+00   -0.10720E-01  1224   0.375E-01    0.501E-01
DAV:   6    -0.763352993179E+03   -0.12080E+01   -0.11299E-01  1224   0.330E-01    0.239E-01
DAV:   7    -0.763921320497E+03   -0.56833E+00   -0.36170E-02  1280   0.201E-01    0.881E-02
DAV:   8    -0.763997950723E+03   -0.76630E-01   -0.39848E-03  1336   0.761E-02    0.383E-02
DAV:   9    -0.764000854132E+03   -0.29034E-02   -0.34807E-04  1288   0.279E-02    0.221E-02
DAV:  10    -0.764001604923E+03   -0.75079E-03   -0.91080E-05  1192   0.165E-02    0.140E-02
DAV:  11    -0.764002125239E+03   -0.52032E-03   -0.32905E-05  1048   0.103E-02    0.115E-02
DAV:  12    -0.764002425611E+03   -0.30037E-03   -0.19720E-05  1128   0.761E-03    0.103E-02
DAV:  13    -0.764002640385E+03   -0.21477E-03   -0.16826E-05  1040   0.627E-03    0.962E-03
DAV:  14    -0.764002757484E+03   -0.11710E-03   -0.75306E-06   960   0.452E-03    0.937E-03
DAV:  15    -0.764002812589E+03   -0.55105E-04   -0.37372E-06   920   0.322E-03    0.927E-03
DAV:  16    -0.764002834650E+03   -0.22062E-04   -0.17301E-06   928   0.244E-03    0.924E-03
DAV:  17    -0.764002847329E+03   -0.12678E-04   -0.79237E-07   888   0.169E-03    0.922E-03
DAV:  18    -0.764002852626E+03   -0.52977E-05   -0.40474E-07   904   0.119E-03
   42 T=   298. E= -.76868030E+03 F= -.76727155E+03 E0= -.76727155E+03  EK= 0.34267E+01 SP= -.53E+01 SK= 0.51E+00 mag=      0.000
       N       E                     dE             d eps       ncg     rms          rms(c)
DAV:   1    -0.763343466600E+03    0.65938E+00   -0.44387E-01  1240   0.199E+00    0.483E+00
DAV:   2    -0.761977072564E+03    0.13664E+01   -0.21901E+00  1184   0.241E+00    0.181E+00
DAV:   3    -0.761053406872E+03    0.92367E+00   -0.30103E-01  1328   0.850E-01    0.124E+00
DAV:   4    -0.761282464070E+03   -0.22906E+00   -0.85783E-02  1288   0.460E-01    0.839E-01
DAV:   5    -0.762222130692E+03   -0.93967E+00   -0.11015E-01  1200   0.384E-01    0.499E-01
DAV:   6    -0.763438916656E+03   -0.12168E+01   -0.11522E-01  1256   0.335E-01    0.236E-01
DAV:   7    -0.763990018231E+03   -0.55110E+00   -0.32694E-02  1304   0.194E-01    0.953E-02
DAV:   8    -0.764075468368E+03   -0.85450E-01   -0.42755E-03  1336   0.779E-02    0.424E-02
DAV:   9    -0.764078288692E+03   -0.28203E-02   -0.42941E-04  1264   0.300E-02    0.226E-02
DAV:  10    -0.764079258158E+03   -0.96947E-03   -0.82920E-05  1168   0.161E-02    0.141E-02
DAV:  11    -0.764079802974E+03   -0.54482E-03   -0.33678E-05  1056   0.104E-02    0.115E-02
DAV:  12    -0.764080099992E+03   -0.29702E-03   -0.21115E-05  1112   0.795E-03    0.104E-02
DAV:  13    -0.764080339588E+03   -0.23960E-03   -0.17973E-05  1040   0.662E-03    0.980E-03
DAV:  14    -0.764080447881E+03   -0.10829E-03   -0.82710E-06   976   0.486E-03    0.957E-03
DAV:  15    -0.764080496065E+03   -0.48184E-04   -0.34548E-06   896   0.340E-03    0.946E-03
DAV:  16    -0.764080519592E+03   -0.23527E-04   -0.17676E-06   928   0.254E-03    0.943E-03
DAV:  17    -0.764080531166E+03   -0.11574E-04   -0.76073E-07   872   0.171E-03    0.941E-03
DAV:  18    -0.764080536880E+03   -0.57133E-05   -0.44239E-07   912   0.126E-03
   43 T=   281. E= -.76866475E+03 F= -.76734855E+03 E0= -.76734855E+03  EK= 0.32345E+01 SP= -.51E+01 SK= 0.50E+00 mag=     -0.000
       N       E                     dE             d eps       ncg     rms          rms(c)
DAV:   1    -0.764290963766E+03   -0.21043E+00   -0.18016E+00  1272   0.181E+00    0.574E-01
DAV:   2    -0.764294471574E+03   -0.35078E-02   -0.90743E-02  1192   0.563E-01    0.278E-01
DAV:   3    -0.764294764695E+03   -0.29312E-03   -0.49186E-03  1272   0.138E-01    0.160E-01
DAV:   4    -0.764293570287E+03    0.11944E-02   -0.23260E-03  1296   0.575E-02    0.121E-01
DAV:   5    -0.764295666675E+03   -0.20964E-02   -0.49737E-03  1304   0.553E-02    0.117E-01
DAV:   6    -0.764297431659E+03   -0.17650E-02   -0.11218E-03  1376   0.293E-02    0.128E-01
DAV:   7    -0.764291939755E+03    0.54919E-02   -0.14733E-02  1240   0.920E-02    0.105E-01
DAV:   8    -0.764290239681E+03    0.17001E-02   -0.18093E-02  1392   0.919E-02    0.482E-02
DAV:   9    -0.764295700180E+03   -0.54605E-02   -0.39370E-04  1168   0.388E-02    0.295E-02
DAV:  10    -0.764301146978E+03   -0.54468E-02   -0.12916E-04  1184   0.155E-02    0.191E-02
DAV:  11    -0.764303668248E+03   -0.25213E-02   -0.69017E-05  1072   0.917E-03    0.136E-02
DAV:  12    -0.764304888163E+03   -0.12199E-02   -0.35529E-05  1040   0.721E-03    0.108E-02
DAV:  13    -0.764305112409E+03   -0.22425E-03   -0.55095E-06   944   0.329E-03    0.985E-03
DAV:  14    -0.764305190020E+03   -0.77611E-04   -0.90639E-06   896   0.303E-03    0.953E-03
DAV:  15    -0.764305202212E+03   -0.12193E-04   -0.19328E-06   912   0.181E-03    0.947E-03
DAV:  16    -0.764305208821E+03   -0.66087E-05   -0.41509E-07   896   0.837E-04
   44 T=   286. E= -.76856038E+03 F= -.76757286E+03 E0= -.76757286E+03  EK= 0.32883E+01 SP= -.48E+01 SK= 0.49E+00 mag=     -2.000
       N       E                     dE             d eps       ncg     rms          rms(c)
DAV:   1    -0.764163731304E+03    0.14147E+00   -0.41271E+00  1288   0.207E+00    0.503E+00
DAV:   2    -0.762641504824E+03    0.15222E+01   -0.24040E+00  1192   0.251E+00    0.188E+00
DAV:   3    -0.761679989135E+03    0.96152E+00   -0.33656E-01  1296   0.908E-01    0.129E+00
DAV:   4    -0.761964910018E+03   -0.28492E+00   -0.96465E-02  1264   0.479E-01    0.869E-01
DAV:   5    -0.762951881923E+03   -0.98697E+00   -0.11352E-01  1224   0.390E-01    0.529E-01
DAV:   6    -0.764229321644E+03   -0.12774E+01   -0.12420E-01  1232   0.345E-01    0.253E-01
DAV:   7    -0.764840760392E+03   -0.61144E+00   -0.39021E-02  1272   0.207E-01    0.975E-02
DAV:   8    -0.764930334201E+03   -0.89574E-01   -0.46955E-03  1344   0.817E-02    0.416E-02
DAV:   9    -0.764933632678E+03   -0.32985E-02   -0.41913E-04  1256   0.296E-02    0.231E-02
DAV:  10    -0.764934550434E+03   -0.91776E-03   -0.98642E-05  1200   0.168E-02    0.148E-02
DAV:  11    -0.764935205966E+03   -0.65553E-03   -0.36306E-05  1056   0.109E-02    0.119E-02
DAV:  12    -0.764935526682E+03   -0.32072E-03   -0.24645E-05  1088   0.838E-03    0.107E-02
DAV:  13    -0.764935741235E+03   -0.21455E-03   -0.15328E-05  1048   0.648E-03    0.101E-02
DAV:  14    -0.764935895404E+03   -0.15417E-03   -0.12529E-05   960   0.507E-03    0.983E-03
DAV:  15    -0.764935937443E+03   -0.42039E-04   -0.26774E-06   920   0.330E-03    0.974E-03
DAV:  16    -0.764935967128E+03   -0.29684E-04   -0.20071E-06   872   0.256E-03    0.971E-03
DAV:  17    -0.764935977511E+03   -0.10384E-04   -0.77285E-07   952   0.172E-03    0.969E-03
DAV:  18    -0.764935982449E+03   -0.49379E-05   -0.46053E-07   840   0.127E-03
   45 T=   304. E= -.76869824E+03 F= -.76820370E+03 E0= -.76820370E+03  EK= 0.34984E+01 SP= -.45E+01 SK= 0.49E+00 mag=      0.000
       N       E                     dE             d eps       ncg     rms          rms(c)
DAV:   1    -0.764782871408E+03    0.15311E+00   -0.33896E-01  1240   0.201E+00    0.402E+00
DAV:   2    -0.764180243103E+03    0.60263E+00   -0.14253E+00  1208   0.203E+00    0.144E+00
DAV:   3    -0.763469577940E+03    0.71067E+00   -0.23470E-01  1304   0.749E-01    0.985E-01
DAV:   4    -0.763549473699E+03   -0.79896E-01   -0.55248E-02  1296   0.392E-01    0.646E-01
DAV:   5    -0.764116946876E+03   -0.56747E+00   -0.46624E-02  1192   0.268E-01    0.411E-01
DAV:   6    -0.764934679115E+03   -0.81773E+00   -0.65542E-02  1256   0.248E-01    0.195E-01
DAV:   7    -0.765273273769E+03   -0.33859E+00   -0.17071E-02  1296   0.141E-01    0.804E-02
DAV:   8    -0.765336579718E+03   -0.63306E-01   -0.29369E-03  1344   0.635E-02    0.348E-02
DAV:   9    -0.765340124767E+03   -0.35450E-02   -0.36217E-04  1240   0.248E-02    0.181E-02
DAV:  10    -0.765340669504E+03   -0.54474E-03   -0.46372E-05  1128   0.114E-02    0.126E-02
DAV:  11    -0.765341086697E+03   -0.41719E-03   -0.18190E-05  1008   0.756E-03    0.109E-02
DAV:  12    -0.765341273453E+03   -0.18676E-03   -0.11504E-05  1032   0.552E-03    0.103E-02
DAV:  13    -0.765341416612E+03   -0.14316E-03   -0.77750E-06   960   0.430E-03    0.101E-02
DAV:  14    -0.765341497796E+03   -0.81185E-04   -0.59170E-06   896   0.342E-03    0.993E-03
DAV:  15    -0.765341524632E+03   -0.26836E-04   -0.18638E-06   896   0.233E-03    0.988E-03
DAV:  16    -0.765341539715E+03   -0.15083E-04   -0.91604E-07   872   0.176E-03    0.987E-03
DAV:  17    -0.765341547798E+03   -0.80826E-05   -0.43125E-07   896   0.120E-03
   46 T=   313. E= -.76870372E+03 F= -.76860964E+03 E0= -.76860964E+03  EK= 0.36011E+01 SP= -.42E+01 SK= 0.50E+00 mag=     -0.000
       N       E                     dE             d eps       ncg     rms          rms(c)
DAV:   1    -0.765419881428E+03   -0.78342E-01   -0.49901E-01  1232   0.204E+00    0.834E-01
DAV:   2    -0.765430453569E+03   -0.10572E-01   -0.18778E-01  1240   0.723E-01    0.392E-01
DAV:   3    -0.765419624119E+03    0.10829E-01   -0.22209E-02  1304   0.219E-01    0.248E-01
DAV:   4    -0.765414298652E+03    0.53255E-02   -0.69866E-03  1280   0.121E-01    0.144E-01
DAV:   5    -0.765422120277E+03   -0.78216E-02   -0.27465E-03  1240   0.783E-02    0.754E-02
DAV:   6    -0.765434656081E+03   -0.12536E-01   -0.46017E-04  1232   0.344E-02    0.504E-02
DAV:   7    -0.765445478984E+03   -0.10823E-01   -0.29982E-04  1248   0.213E-02    0.322E-02
DAV:   8    -0.765452340677E+03   -0.68617E-02   -0.21371E-04  1160   0.161E-02    0.194E-02
DAV:   9    -0.765454983848E+03   -0.26432E-02   -0.10639E-04  1136   0.116E-02    0.133E-02
DAV:  10    -0.765455716861E+03   -0.73301E-03   -0.42929E-05  1032   0.726E-03    0.108E-02
DAV:  11    -0.765455814785E+03   -0.97924E-04   -0.11796E-05   960   0.431E-03    0.102E-02
DAV:  12    -0.765455823881E+03   -0.90965E-05   -0.46552E-06   928   0.283E-03
   47 T=   307. E= -.76858999E+03 F= -.76872439E+03 E0= -.76872439E+03  EK= 0.35265E+01 SP= -.39E+01 SK= 0.51E+00 mag=     -2.000
       N       E                     dE             d eps       ncg     rms          rms(c)
DAV:   1    -0.764860454562E+03    0.59536E+00   -0.11554E+00  1320   0.210E+00    0.443E+00
DAV:   2    -0.765196897077E+03   -0.33644E+00   -0.13391E+00  1264   0.214E+00    0.102E+00
DAV:   3    -0.765051604887E+03    0.14529E+00   -0.16690E-01  1280   0.677E-01    0.679E-01
DAV:   4    -0.765049161847E+03    0.24430E-02   -0.18173E-02  1344   0.258E-01    0.379E-01
DAV:   5    -0.765175033545E+03   -0.12587E+00   -0.99959E-03  1240   0.138E-01    0.250E-01
DAV:   6    -0.765373507804E+03   -0.19847E+00   -0.87138E-03  1240   0.105E-01    0.150E-01
DAV:   7    -0.765530558565E+03   -0.15705E+00   -0.78789E-03  1264   0.935E-02    0.614E-02
DAV:   8    -0.765562698560E+03   -0.32140E-01   -0.12530E-03  1344   0.401E-02    0.291E-02
DAV:   9    -0.765569629052E+03   -0.69305E-02   -0.35471E-04  1168   0.213E-02    0.151E-02
DAV:  10    -0.765569777182E+03   -0.14813E-03   -0.30464E-05  1128   0.839E-03    0.112E-02
DAV:  11    -0.765569980728E+03   -0.20355E-03   -0.54101E-06   920   0.432E-03    0.104E-02
DAV:  12    -0.765570082502E+03   -0.10177E-03   -0.28699E-06   920   0.287E-03    0.101E-02
DAV:  13    -0.765570132066E+03   -0.49564E-04   -0.23057E-06   904   0.232E-03    0.100E-02
DAV:  14    -0.765570159468E+03   -0.27401E-04   -0.15167E-06   880   0.178E-03    0.100E-02
DAV:  15    -0.765570173356E+03   -0.13889E-04   -0.10236E-06   880   0.137E-03    0.100E-02
DAV:  16    -0.765570178918E+03   -0.55622E-05   -0.38664E-07   848   0.947E-04
   48 T=   292. E= -.76857887E+03 F= -.76883908E+03 E0= -.76883908E+03  EK= 0.33571E+01 SP= -.36E+01 SK= 0.51E+00 mag=     -4.000
       N       E                     dE             d eps       ncg     rms          rms(c)
DAV:   1    -0.765172669803E+03    0.39750E+00   -0.86257E-02  1216   0.183E+00    0.356E+00
DAV:   2    -0.765352681860E+03   -0.18001E+00   -0.85264E-01  1288   0.169E+00    0.847E-01
DAV:   3    -0.765225084558E+03    0.12760E+00   -0.95040E-02  1280   0.519E-01    0.560E-01
DAV:   4    -0.765212361118E+03    0.12723E-01   -0.93316E-03  1296   0.191E-01    0.334E-01
DAV:   5    -0.765305253444E+03   -0.92892E-01   -0.70493E-03  1224   0.113E-01    0.210E-01
DAV:   6    -0.765462121999E+03   -0.15687E+00   -0.67967E-03  1248   0.913E-02    0.119E-01
DAV:   7    -0.765570417541E+03   -0.10830E+00   -0.43502E-03  1304   0.702E-02    0.579E-02
DAV:   8    -0.765599569275E+03   -0.29152E-01   -0.12089E-03  1304   0.372E-02    0.264E-02
DAV:   9    -0.765603515781E+03   -0.39465E-02   -0.26653E-04  1152   0.181E-02    0.140E-02
DAV:  10    -0.765603610614E+03   -0.94833E-04   -0.14364E-05  1048   0.685E-03    0.110E-02
DAV:  11    -0.765603740106E+03   -0.12949E-03   -0.43221E-06   872   0.383E-03    0.103E-02
DAV:  12    -0.765603778749E+03   -0.38643E-04   -0.18879E-06   896   0.238E-03    0.102E-02
DAV:  13    -0.765603806615E+03   -0.27866E-04   -0.12181E-06   904   0.171E-03    0.101E-02
DAV:  14    -0.765603830847E+03   -0.24232E-04   -0.11728E-06   864   0.145E-03    0.101E-02
DAV:  15    -0.765603837019E+03   -0.61724E-05   -0.68572E-07   872   0.113E-03
   49 T=   271. E= -.76857930E+03 F= -.76887275E+03 E0= -.76887275E+03  EK= 0.31144E+01 SP= -.33E+01 SK= 0.49E+00 mag=     -4.000
       N       E                     dE             d eps       ncg     rms          rms(c)
DAV:   1    -0.765503442435E+03    0.10039E+00   -0.10117E-01  1216   0.159E+00    0.726E-01
DAV:   2    -0.765506560549E+03   -0.31181E-02   -0.10795E-01  1248   0.567E-01    0.314E-01
DAV:   3    -0.765491803917E+03    0.14757E-01   -0.15530E-02  1264   0.181E-01    0.191E-01
DAV:   4    -0.765486376336E+03    0.54276E-02   -0.44842E-03  1280   0.873E-02    0.125E-01
DAV:   5    -0.765492756397E+03   -0.63801E-02   -0.24265E-03  1256   0.563E-02    0.828E-02
DAV:   6    -0.765508389071E+03   -0.15633E-01   -0.30081E-03  1280   0.484E-02    0.641E-02
DAV:   7    -0.765519033385E+03   -0.10644E-01   -0.29118E-03  1384   0.441E-02    0.559E-02
DAV:   8    -0.765525883442E+03   -0.68501E-02   -0.32810E-03  1336   0.446E-02    0.529E-02
DAV:   9    -0.765528180930E+03   -0.22975E-02   -0.29084E-03  1400   0.405E-02    0.530E-02
DAV:  10    -0.765528425590E+03   -0.24466E-03   -0.17874E-04  1256   0.163E-02    0.546E-02
DAV:  11    -0.765528262480E+03    0.16311E-03   -0.29216E-04  1200   0.167E-02    0.652E-02
DAV:  12    -0.765526990595E+03    0.12719E-02   -0.61264E-03  1280   0.601E-02    0.914E-02
DAV:  13    -0.765528286417E+03   -0.12958E-02   -0.35188E-03  1216   0.484E-02    0.752E-02
DAV:  14    -0.765527359781E+03    0.92664E-03   -0.93581E-02  1296   0.225E-01    0.112E-01
DAV:  15    -0.765528220787E+03   -0.86101E-03   -0.26371E-02  1328   0.146E-01    0.175E-01
DAV:  16    -0.765530423331E+03   -0.22025E-02   -0.93423E-03  1200   0.107E-01    0.733E-02
DAV:  17    -0.765528839991E+03    0.15833E-02   -0.11102E-02  1312   0.942E-02    0.128E-01
DAV:  18    -0.765529355839E+03   -0.51585E-03   -0.31555E-04  1224   0.316E-02    0.141E-01
DAV:  19    -0.765529696266E+03   -0.34043E-03   -0.39370E-05  1112   0.124E-02    0.119E-01
DAV:  20    -0.765530340401E+03   -0.64413E-03   -0.14072E-02  1264   0.976E-02    0.502E-02
DAV:  21    -0.765530793041E+03   -0.45264E-03   -0.86228E-03  1424   0.727E-02    0.482E-02
DAV:  22    -0.765531209383E+03   -0.41634E-03   -0.32708E-04  1128   0.275E-02    0.485E-02
DAV:  23    -0.765531330681E+03   -0.12130E-03   -0.91025E-04  1272   0.230E-02    0.475E-02
DAV:  24    -0.765531431787E+03   -0.10111E-03   -0.60331E-04  1368   0.202E-02    0.490E-02
DAV:  25    -0.765531468523E+03   -0.36735E-04   -0.16214E-05   880   0.759E-03    0.475E-02
DAV:  26    -0.765531618761E+03   -0.15024E-03   -0.10947E-02  1240   0.750E-02    0.456E-02
DAV:  27    -0.765532124170E+03   -0.50541E-03   -0.33807E-03  1288   0.489E-02    0.576E-02
DAV:  28    -0.765532362800E+03   -0.23863E-03   -0.89756E-03  1408   0.679E-02    0.716E-02
DAV:  29    -0.765532500619E+03   -0.13782E-03   -0.54060E-04  1240   0.395E-02    0.750E-02
DAV:  30    -0.765532685568E+03   -0.18495E-03   -0.11839E-03  1344   0.273E-02    0.627E-02
DAV:  31    -0.765532678689E+03    0.68790E-05   -0.10595E-04  1080   0.125E-02    0.660E-02
DAV:  32    -0.765532567532E+03    0.11116E-03   -0.95862E-05   920   0.903E-03    0.681E-02
DAV:  33    -0.765532471236E+03    0.96297E-04   -0.14195E-04  1208   0.101E-02    0.710E-02
DAV:  34    -0.765532663161E+03   -0.19193E-03   -0.69065E-04  1208   0.199E-02    0.714E-02
DAV:  35    -0.765532469283E+03    0.19388E-03   -0.34666E-04  1120   0.142E-02    0.759E-02
DAV:  36    -0.765532749609E+03   -0.28033E-03   -0.15461E-03  1216   0.286E-02    0.678E-02
DAV:  37    -0.765532860515E+03   -0.11091E-03   -0.80450E-03  1224   0.666E-02    0.483E-02
DAV:  38    -0.765532871666E+03   -0.11150E-04   -0.11012E-02  1304   0.820E-02    0.471E-02
DAV:  39    -0.765533302716E+03   -0.43105E-03   -0.77321E-04  1128   0.359E-02    0.471E-02
DAV:  40    -0.765533387666E+03   -0.84950E-04   -0.70000E-04  1272   0.216E-02    0.304E-02
DAV:  41    -0.765533349937E+03    0.37729E-04   -0.12946E-04  1008   0.115E-02    0.356E-02
DAV:  42    -0.765533255781E+03    0.94155E-04   -0.37105E-04  1224   0.158E-02    0.409E-02
DAV:  43    -0.765533210250E+03    0.45531E-04   -0.17190E-04  1200   0.120E-02    0.458E-02
DAV:  44    -0.765533381084E+03   -0.17083E-03   -0.25604E-03  1216   0.383E-02    0.296E-02
DAV:  45    -0.765533381546E+03   -0.46224E-06   -0.12208E-04  1120   0.168E-02    0.433E-02
DAV:  46    -0.765533457612E+03   -0.76066E-04   -0.97239E-04  1216   0.237E-02    0.320E-02
DAV:  47    -0.765533490856E+03   -0.33244E-04   -0.17216E-04  1088   0.124E-02    0.320E-02
DAV:  48    -0.765533534976E+03   -0.44119E-04   -0.11534E-03  1216   0.253E-02    0.240E-02
DAV:  49    -0.765533572839E+03   -0.37863E-04   -0.18535E-04  1080   0.130E-02    0.258E-02
DAV:  50    -0.765533586984E+03   -0.14145E-04   -0.67812E-05   880   0.705E-03    0.254E-02
DAV:  51    -0.765533583222E+03    0.37620E-05   -0.46531E-06   736   0.431E-03
   50 T=   244. E= -.76857361E+03 F= -.76880213E+03 E0= -.76880213E+03  EK= 0.28034E+01 SP= -.30E+01 SK= 0.46E+00 mag=     -2.000
       N       E                     dE             d eps       ncg     rms          rms(c)
DAV:   1    -0.765051046664E+03    0.48254E+00   -0.23577E-01  1216   0.171E+00    0.369E+00
DAV:   2    -0.765341669864E+03   -0.29062E+00   -0.91369E-01  1312   0.174E+00    0.768E-01
DAV:   3    -0.765293431020E+03    0.48239E-01   -0.93283E-02  1232   0.519E-01    0.510E-01
DAV:   4    -0.765284477630E+03    0.89534E-02   -0.80425E-03  1352   0.177E-01    0.270E-01
DAV:   5    -0.765333349078E+03   -0.48871E-01   -0.43233E-03  1248   0.922E-02    0.177E-01
DAV:   6    -0.765426826165E+03   -0.93477E-01   -0.36043E-03  1232   0.703E-02    0.106E-01
DAV:   7    -0.765503895121E+03   -0.77069E-01   -0.32481E-03  1296   0.616E-02    0.485E-02
DAV:   8    -0.765525209860E+03   -0.21315E-01   -0.80952E-04  1288   0.311E-02    0.223E-02
DAV:   9    -0.765529420231E+03   -0.42104E-02   -0.20230E-04  1136   0.154E-02    0.130E-02
DAV:  10    -0.765529502225E+03   -0.81994E-04   -0.13487E-05  1056   0.568E-03    0.109E-02
DAV:  11    -0.765529559680E+03   -0.57455E-04   -0.22409E-06   912   0.284E-03    0.105E-02
DAV:  12    -0.765529601099E+03   -0.41419E-04   -0.11182E-06   856   0.177E-03    0.104E-02
DAV:  13    -0.765529617371E+03   -0.16272E-04   -0.69339E-07   872   0.129E-03    0.104E-02
DAV:  14    -0.765529631419E+03   -0.14048E-04   -0.54281E-07   880   0.101E-03    0.104E-02
DAV:  15    -0.765529637941E+03   -0.65216E-05   -0.35421E-07   856   0.802E-04
   51 T=   216. E= -.76868453E+03 F= -.76879753E+03 E0= -.76879753E+03  EK= 0.24796E+01 SP= -.28E+01 SK= 0.40E+00 mag=     -0.000
       N       E                     dE             d eps       ncg     rms          rms(c)
DAV:   1    -0.764875877232E+03    0.65375E+00   -0.90387E-02  1152   0.166E+00    0.391E+00
DAV:   2    -0.765163160686E+03   -0.28728E+00   -0.10115E+00  1272   0.186E+00    0.857E-01
DAV:   3    -0.765064240823E+03    0.98920E-01   -0.12279E-01  1256   0.589E-01    0.577E-01
DAV:   4    -0.765054543185E+03    0.96976E-02   -0.11718E-02  1328   0.210E-01    0.320E-01
DAV:   5    -0.765136452742E+03   -0.81910E-01   -0.68854E-03  1240   0.115E-01    0.212E-01
DAV:   6    -0.765280737002E+03   -0.14428E+00   -0.61566E-03  1256   0.893E-02    0.125E-01
DAV:   7    -0.765395717518E+03   -0.11498E+00   -0.56533E-03  1296   0.804E-02    0.503E-02
DAV:   8    -0.765418707525E+03   -0.22990E-01   -0.86865E-04  1336   0.336E-02    0.231E-02
DAV:   9    -0.765423542630E+03   -0.48351E-02   -0.21431E-04  1152   0.168E-02    0.135E-02
DAV:  10    -0.765423667241E+03   -0.12461E-03   -0.20978E-05  1104   0.677E-03    0.112E-02
DAV:  11    -0.765423761511E+03   -0.94269E-04   -0.29227E-06   904   0.348E-03    0.106E-02
DAV:  12    -0.765423828722E+03   -0.67211E-04   -0.21362E-06   888   0.235E-03    0.105E-02
DAV:  13    -0.765423851448E+03   -0.22726E-04   -0.12286E-06   904   0.180E-03    0.105E-02
DAV:  14    -0.765423870438E+03   -0.18991E-04   -0.12207E-06   864   0.149E-03    0.104E-02
DAV:  15    -0.765423877771E+03   -0.73329E-05   -0.49456E-07   856   0.112E-03
   52 T=   192. E= -.76868135E+03 F= -.76869104E+03 E0= -.76869104E+03  EK= 0.22069E+01 SP= -.25E+01 SK= 0.32E+00 mag=     -0.000
       N       E                     dE             d eps       ncg     rms          rms(c)
DAV:   1    -0.765250530905E+03    0.17334E+00   -0.15522E-01  1200   0.131E+00    0.397E-01
DAV:   2    -0.765252154547E+03   -0.16236E-02   -0.49944E-02  1224   0.414E-01    0.182E-01
DAV:   3    -0.765249361214E+03    0.27933E-02   -0.35382E-03  1256   0.105E-01    0.112E-01
DAV:   4    -0.765247833212E+03    0.15280E-02   -0.12729E-03  1312   0.486E-02    0.733E-02
DAV:   5    -0.765249454666E+03   -0.16215E-02   -0.14305E-03  1312   0.371E-02    0.469E-02
DAV:   6    -0.765252994588E+03   -0.35399E-02   -0.85132E-04  1272   0.263E-02    0.366E-02
DAV:   7    -0.765256861880E+03   -0.38673E-02   -0.15322E-03  1320   0.324E-02    0.265E-02
DAV:   8    -0.765258716880E+03   -0.18550E-02   -0.12227E-03  1328   0.288E-02    0.215E-02
DAV:   9    -0.765258653017E+03    0.63863E-04   -0.12124E-03  1376   0.284E-02    0.161E-02
DAV:  10    -0.765258613862E+03    0.39156E-04   -0.46579E-04  1448   0.182E-02    0.143E-02
DAV:  11    -0.765258693500E+03   -0.79639E-04   -0.38605E-04  1288   0.155E-02    0.119E-02
DAV:  12    -0.765258899127E+03   -0.20563E-03   -0.37959E-05   984   0.789E-03    0.115E-02
DAV:  13    -0.765258969391E+03   -0.70264E-04   -0.63143E-05   992   0.715E-03    0.107E-02
DAV:  14    -0.765259022838E+03   -0.53447E-04   -0.16852E-05   880   0.487E-03    0.105E-02
DAV:  15    -0.765259027809E+03   -0.49713E-05   -0.70931E-06   928   0.324E-03
   53 T=   176. E= -.76856711E+03 F= -.76852551E+03 E0= -.76852551E+03  EK= 0.20209E+01 SP= -.23E+01 SK= 0.24E+00 mag=     -2.000
[...]
       N       E                     dE             d eps       ncg     rms          rms(c)
DAV:   1    -0.769034181184E+03   -0.14280E-02   -0.96460E-04  1072   0.182E-01    0.208E-02
DAV:   2    -0.769034230620E+03   -0.49436E-04   -0.51420E-04  1280   0.386E-02    0.167E-02
DAV:   3    -0.769034229625E+03    0.99488E-06   -0.44958E-06   824   0.413E-03    0.142E-02
DAV:   4    -0.769034228852E+03    0.77285E-06   -0.35444E-06   840   0.375E-03    0.117E-02
DAV:   5    -0.769034228960E+03   -0.10824E-06   -0.13910E-06   624   0.203E-03    0.112E-02
DAV:   6    -0.769034228998E+03   -0.37224E-07   -0.24071E-07   592   0.916E-04
 4975 T=     4. E= -.77215689E+03 F= -.77237846E+03 E0= -.77237846E+03  EK= 0.40859E-01 SP= 0.13E+00 SK= 0.46E-01 mag=      0.000
       N       E                     dE             d eps       ncg     rms          rms(c)
DAV:   1    -0.769036761769E+03   -0.25328E-02   -0.58479E-04  1120   0.173E-01    0.187E-02
DAV:   2    -0.769036796089E+03   -0.34320E-04   -0.35299E-04  1208   0.313E-02    0.154E-02
DAV:   3    -0.769036795302E+03    0.78644E-06   -0.31693E-06   864   0.334E-03    0.134E-02
DAV:   4    -0.769036794775E+03    0.52774E-06   -0.22203E-06   808   0.286E-03    0.115E-02
DAV:   5    -0.769036794923E+03   -0.14817E-06   -0.90577E-07   696   0.158E-03    0.112E-02
DAV:   6    -0.769036794972E+03   -0.49222E-07   -0.17282E-07   640   0.727E-04
 4976 T=     4. E= -.77216241E+03 F= -.77238102E+03 E0= -.77238102E+03  EK= 0.42239E-01 SP= 0.13E+00 SK= 0.46E-01 mag=      0.000
       N       E                     dE             d eps       ncg     rms          rms(c)
DAV:   1    -0.769038844350E+03   -0.20494E-02   -0.71312E-04  1104   0.161E-01    0.209E-02
DAV:   2    -0.769038886853E+03   -0.42502E-04   -0.43963E-04  1192   0.355E-02    0.171E-02
DAV:   3    -0.769038885396E+03    0.14562E-05   -0.45843E-06   912   0.392E-03    0.144E-02
DAV:   4    -0.769038884794E+03    0.60202E-06   -0.29311E-06   800   0.327E-03    0.118E-02
DAV:   5    -0.769038884918E+03   -0.12401E-06   -0.95364E-07   712   0.171E-03    0.113E-02
DAV:   6    -0.769038885006E+03   -0.87464E-07   -0.21140E-07   680   0.836E-04
 4977 T=     4. E= -.77216789E+03 F= -.77238310E+03 E0= -.77238310E+03  EK= 0.43162E-01 SP= 0.12E+00 SK= 0.47E-01 mag=      0.000
       N       E                     dE             d eps       ncg     rms          rms(c)
DAV:   1    -0.769039529519E+03   -0.64460E-03   -0.11642E-03  1176   0.756E-01    0.239E-02
DAV:   2    -0.769039589942E+03   -0.60423E-04   -0.63324E-04  1144   0.436E-02    0.194E-02
DAV:   3    -0.769039588313E+03    0.16281E-05   -0.70269E-06  1032   0.488E-03    0.156E-02
DAV:   4    -0.769039587524E+03    0.78951E-06   -0.36551E-06   768   0.379E-03    0.124E-02
DAV:   5    -0.769039587598E+03   -0.73866E-07   -0.13851E-06   712   0.214E-03    0.114E-02
DAV:   6    -0.769039587604E+03   -0.60536E-08   -0.31116E-07   664   0.110E-03
 4978 T=     4. E= -.77217332E+03 F= -.77238381E+03 E0= -.77238381E+03  EK= 0.42770E-01 SP= 0.12E+00 SK= 0.48E-01 mag=      0.000
       N       E                     dE             d eps       ncg     rms          rms(c)
DAV:   1    -0.769039386350E+03    0.20125E-03   -0.13555E-03  1176   0.851E-01    0.249E-02
DAV:   2    -0.769039455901E+03   -0.69551E-04   -0.72404E-04  1176   0.464E-02    0.201E-02
DAV:   3    -0.769039453859E+03    0.20420E-05   -0.72044E-06  1024   0.500E-03    0.160E-02
DAV:   4    -0.769039452260E+03    0.15981E-05   -0.52780E-06   904   0.432E-03    0.123E-02
DAV:   5    -0.769039452396E+03   -0.13601E-06   -0.13836E-06   744   0.209E-03    0.114E-02
DAV:   6    -0.769039452324E+03    0.72389E-07   -0.31709E-07   648   0.113E-03
 4979 T=     4. E= -.77217871E+03 F= -.77238370E+03 E0= -.77238370E+03  EK= 0.41619E-01 SP= 0.11E+00 SK= 0.48E-01 mag=      0.000
       N       E                     dE             d eps       ncg     rms          rms(c)
DAV:   1    -0.769039553269E+03   -0.10087E-03   -0.85513E-04  1104   0.363E-01    0.221E-02
DAV:   2    -0.769039601546E+03   -0.48277E-04   -0.51877E-04  1224   0.388E-02    0.174E-02
DAV:   3    -0.769039600553E+03    0.99291E-06   -0.51058E-06   888   0.418E-03    0.145E-02
DAV:   4    -0.769039599630E+03    0.92322E-06   -0.25018E-06   824   0.308E-03    0.122E-02
DAV:   5    -0.769039599770E+03   -0.14083E-06   -0.14697E-06   776   0.212E-03    0.113E-02
DAV:   6    -0.769039599760E+03    0.10150E-07   -0.28162E-07   592   0.981E-04
 4980 T=     4. E= -.77218419E+03 F= -.77238390E+03 E0= -.77238390E+03  EK= 0.40731E-01 SP= 0.11E+00 SK= 0.49E-01 mag=      0.000
       N       E                     dE             d eps       ncg     rms          rms(c)
DAV:   1    -0.769040304898E+03   -0.70513E-03   -0.53443E-04  1120   0.151E-01    0.209E-02
DAV:   2    -0.769040338477E+03   -0.33579E-04   -0.37247E-04  1200   0.319E-02    0.162E-02
DAV:   3    -0.769040337790E+03    0.68724E-06   -0.51941E-06   992   0.375E-03    0.140E-02
DAV:   4    -0.769040337298E+03    0.49149E-06   -0.17710E-06   768   0.261E-03    0.119E-02
DAV:   5    -0.769040337375E+03   -0.77023E-07   -0.90850E-07   776   0.169E-03    0.113E-02
DAV:   6    -0.769040337406E+03   -0.30464E-07   -0.22266E-07   632   0.864E-04
 4981 T=     4. E= -.77218974E+03 F= -.77238470E+03 E0= -.77238470E+03  EK= 0.40394E-01 SP= 0.10E+00 SK= 0.50E-01 mag=      0.000
       N       E                     dE             d eps       ncg     rms          rms(c)
DAV:   1    -0.769041022037E+03   -0.68466E-03   -0.56129E-04  1144   0.184E-01    0.214E-02
DAV:   2    -0.769041058967E+03   -0.36930E-04   -0.40193E-04  1192   0.330E-02    0.167E-02
DAV:   3    -0.769041058259E+03    0.70815E-06   -0.58138E-06  1024   0.384E-03    0.143E-02
DAV:   4    -0.769041057833E+03    0.42525E-06   -0.14198E-06   704   0.240E-03    0.120E-02
DAV:   5    -0.769041057847E+03   -0.13402E-07   -0.96273E-07   784   0.176E-03    0.112E-02
DAV:   6    -0.769041057898E+03   -0.51383E-07   -0.24817E-07   632   0.863E-04
 4982 T=     3. E= -.77219532E+03 F= -.77238547E+03 E0= -.77238547E+03  EK= 0.40031E-01 SP= 0.99E-01 SK= 0.51E-01 mag=      0.000
       N       E                     dE             d eps       ncg     rms          rms(c)
DAV:   1    -0.769041041950E+03    0.15897E-04   -0.79710E-04  1144   0.164E-01    0.221E-02
DAV:   2    -0.769041088414E+03   -0.46464E-04   -0.49551E-04  1176   0.378E-02    0.176E-02
DAV:   3    -0.769041087677E+03    0.73647E-06   -0.68046E-06  1008   0.444E-03    0.147E-02
DAV:   4    -0.769041086996E+03    0.68174E-06   -0.19451E-06   720   0.294E-03    0.121E-02
DAV:   5    -0.769041086996E+03   -0.19645E-09   -0.11303E-06   752   0.198E-03    0.112E-02
DAV:   6    -0.769041087035E+03   -0.38650E-07   -0.26495E-07   648   0.940E-04
 4983 T=     3. E= -.77220084E+03 F= -.77238553E+03 E0= -.77238553E+03  EK= 0.39041E-01 SP= 0.94E-01 SK= 0.51E-01 mag=      0.000
       N       E                     dE             d eps       ncg     rms          rms(c)
DAV:   1    -0.769040563644E+03    0.52335E-03   -0.11772E-03  1128   0.315E-01    0.231E-02
DAV:   2    -0.769040620807E+03   -0.57163E-04   -0.59644E-04  1176   0.423E-02    0.185E-02
DAV:   3    -0.769040619698E+03    0.11090E-05   -0.69112E-06   936   0.485E-03    0.151E-02
DAV:   4    -0.769040618789E+03    0.90814E-06   -0.25892E-06   784   0.342E-03    0.123E-02
DAV:   5    -0.769040618907E+03   -0.11722E-06   -0.13835E-06   728   0.219E-03    0.112E-02
DAV:   6    -0.769040618949E+03   -0.42375E-07   -0.27587E-07   608   0.103E-03
 4984 T=     3. E= -.77220636E+03 F= -.77238508E+03 E0= -.77238508E+03  EK= 0.37581E-01 SP= 0.89E-01 SK= 0.52E-01 mag=      0.000
       N       E                     dE             d eps       ncg     rms          rms(c)
DAV:   1    -0.769040377847E+03    0.24106E-03   -0.11949E-03  1232   0.473E+00    0.241E-02
DAV:   2    -0.769040452836E+03   -0.74989E-04   -0.76560E-04  1192   0.467E-02    0.202E-02
DAV:   3    -0.769040452341E+03    0.49487E-06   -0.71207E-06   992   0.493E-03    0.152E-02
DAV:   4    -0.769040451706E+03    0.63579E-06   -0.18544E-06   800   0.274E-03    0.133E-02
DAV:   5    -0.769040451288E+03    0.41730E-06   -0.18774E-06   808   0.278E-03    0.112E-02
DAV:   6    -0.769040451299E+03   -0.10979E-07   -0.58564E-07   752   0.136E-03
 4985 T=     3. E= -.77221189E+03 F= -.77238491E+03 E0= -.77238491E+03  EK= 0.36436E-01 SP= 0.84E-01 SK= 0.53E-01 mag=      0.000
       N       E                     dE             d eps       ncg     rms          rms(c)
DAV:   1    -0.769040580886E+03   -0.12960E-03   -0.20675E-03  1408   0.350E+00    0.299E-02
DAV:   2    -0.769041185245E+03   -0.60436E-03   -0.60576E-03  1192   0.773E-02    0.277E-02
DAV:   3    -0.769041201679E+03   -0.16433E-04   -0.16666E-04  1056   0.108E-02    0.163E-02
DAV:   4    -0.769041202235E+03   -0.55657E-06   -0.12049E-05   880   0.347E-03    0.143E-02
DAV:   5    -0.769041201892E+03    0.34333E-06   -0.13394E-06   808   0.233E-03    0.114E-02
DAV:   6    -0.769041201876E+03    0.16495E-07   -0.67694E-07   696   0.140E-03
 4986 T=     3. E= -.77221751E+03 F= -.77238566E+03 E0= -.77238566E+03  EK= 0.36154E-01 SP= 0.78E-01 SK= 0.54E-01 mag=      0.000
       N       E                     dE             d eps       ncg     rms          rms(c)
DAV:   1    -0.769042518592E+03   -0.13167E-02   -0.55951E-04  1168   0.762E-01    0.199E-02
DAV:   2    -0.769042553343E+03   -0.34751E-04   -0.36420E-04  1184   0.312E-02    0.166E-02
DAV:   3    -0.769042552413E+03    0.92987E-06   -0.43615E-06   896   0.365E-03    0.140E-02
DAV:   4    -0.769042551786E+03    0.62748E-06   -0.23367E-06   768   0.274E-03    0.118E-02
DAV:   5    -0.769042551801E+03   -0.15250E-07   -0.82824E-07   640   0.152E-03    0.113E-02
DAV:   6    -0.769042551826E+03   -0.25342E-07   -0.21825E-07   664   0.810E-04
 4987 T=     3. E= -.77222319E+03 F= -.77238701E+03 E0= -.77238701E+03  EK= 0.36435E-01 SP= 0.73E-01 SK= 0.54E-01 mag=      0.000
       N       E                     dE             d eps       ncg     rms          rms(c)
DAV:   1    -0.769043619575E+03   -0.10678E-02   -0.62384E-04  1160   0.515E-01    0.199E-02
DAV:   2    -0.769043664590E+03   -0.45015E-04   -0.46865E-04  1200   0.357E-02    0.180E-02
DAV:   3    -0.769043663276E+03    0.13138E-05   -0.50569E-06   920   0.403E-03    0.150E-02
DAV:   4    -0.769043662151E+03    0.11249E-05   -0.46218E-06   848   0.384E-03    0.119E-02
DAV:   5    -0.769043662249E+03   -0.97185E-07   -0.12622E-06   640   0.188E-03    0.113E-02
DAV:   6    -0.769043662241E+03    0.76325E-08   -0.24928E-07   632   0.946E-04
 4988 T=     3. E= -.77222887E+03 F= -.77238815E+03 E0= -.77238815E+03  EK= 0.36499E-01 SP= 0.68E-01 SK= 0.55E-01 mag=      0.000
       N       E                     dE             d eps       ncg     rms          rms(c)
DAV:   1    -0.769043908822E+03   -0.24657E-03   -0.86578E-04  1176   0.389E-01    0.212E-02
DAV:   2    -0.769043964959E+03   -0.56138E-04   -0.58021E-04  1224   0.406E-02    0.187E-02
DAV:   3    -0.769043963356E+03    0.16038E-05   -0.55905E-06   888   0.455E-03    0.155E-02
DAV:   4    -0.769043961948E+03    0.14075E-05   -0.68848E-06   968   0.476E-03    0.118E-02
DAV:   5    -0.769043962004E+03   -0.56156E-07   -0.14729E-06   656   0.211E-03    0.114E-02
DAV:   6    -0.769043962020E+03   -0.16131E-07   -0.25432E-07   600   0.959E-04
 4989 T=     3. E= -.77223451E+03 F= -.77238849E+03 E0= -.77238849E+03  EK= 0.35833E-01 SP= 0.62E-01 SK= 0.56E-01 mag=      0.000
       N       E                     dE             d eps       ncg     rms          rms(c)
DAV:   1    -0.769043626108E+03    0.33590E-03   -0.10805E-03  1160   0.409E-01    0.226E-02
DAV:   2    -0.769043679026E+03   -0.52918E-04   -0.56464E-04  1208   0.403E-02    0.180E-02
DAV:   3    -0.769043678008E+03    0.10183E-05   -0.59203E-06   840   0.467E-03    0.150E-02
DAV:   4    -0.769043676844E+03    0.11644E-05   -0.54813E-06   936   0.454E-03    0.117E-02
DAV:   5    -0.769043676975E+03   -0.13119E-06   -0.15033E-06   624   0.215E-03    0.113E-02
DAV:   6    -0.769043676937E+03    0.37777E-07   -0.23405E-07   592   0.961E-04
 4990 T=     3. E= -.77224014E+03 F= -.77238827E+03 E0= -.77238827E+03  EK= 0.34643E-01 SP= 0.57E-01 SK= 0.57E-01 mag=      0.000
       N       E                     dE             d eps       ncg     rms          rms(c)
DAV:   1    -0.769043525893E+03    0.15108E-03   -0.93956E-04  1120   0.247E-01    0.234E-02
DAV:   2    -0.769043565905E+03   -0.40013E-04   -0.45033E-04  1208   0.353E-02    0.174E-02
DAV:   3    -0.769043565534E+03    0.37132E-06   -0.69486E-06   968   0.429E-03    0.147E-02
DAV:   4    -0.769043564890E+03    0.64359E-06   -0.18962E-06   784   0.276E-03    0.120E-02
DAV:   5    -0.769043564784E+03    0.10647E-06   -0.10890E-06   704   0.185E-03    0.112E-02
DAV:   6    -0.769043564778E+03    0.63737E-08   -0.25398E-07   600   0.891E-04
 4991 T=     3. E= -.77224580E+03 F= -.77238822E+03 E0= -.77238822E+03  EK= 0.33646E-01 SP= 0.51E-01 SK= 0.57E-01 mag=      0.000
       N       E                     dE             d eps       ncg     rms          rms(c)
DAV:   1    -0.769044151955E+03   -0.58717E-03   -0.62487E-04  1088   0.141E-01    0.212E-02
DAV:   2    -0.769044181834E+03   -0.29879E-04   -0.33690E-04  1208   0.296E-02    0.162E-02
DAV:   3    -0.769044181637E+03    0.19737E-06   -0.59346E-06  1000   0.376E-03    0.140E-02
DAV:   4    -0.769044181293E+03    0.34408E-06   -0.12590E-06   720   0.216E-03    0.120E-02
DAV:   5    -0.769044181259E+03    0.34284E-07   -0.67672E-07   792   0.151E-03    0.112E-02
DAV:   6    -0.769044181300E+03   -0.41669E-07   -0.22102E-07   616   0.783E-04
 4992 T=     3. E= -.77225155E+03 F= -.77238888E+03 E0= -.77238888E+03  EK= 0.33306E-01 SP= 0.46E-01 SK= 0.58E-01 mag=      0.000
       N       E                     dE             d eps       ncg     rms          rms(c)
DAV:   1    -0.769045136362E+03   -0.95510E-03   -0.45568E-04  1184   0.136E-01    0.183E-02
DAV:   2    -0.769045164683E+03   -0.28321E-04   -0.30107E-04  1240   0.289E-02    0.154E-02
DAV:   3    -0.769045164318E+03    0.36467E-06   -0.39834E-06   880   0.337E-03    0.135E-02
DAV:   4    -0.769045163966E+03    0.35228E-06   -0.13703E-06   704   0.232E-03    0.118E-02
DAV:   5    -0.769045163898E+03    0.67615E-07   -0.74726E-07   744   0.155E-03    0.112E-02
DAV:   6    -0.769045163878E+03    0.20416E-07   -0.19358E-07   608   0.770E-04
 4993 T=     3. E= -.77225734E+03 F= -.77238987E+03 E0= -.77238987E+03  EK= 0.33273E-01 SP= 0.40E-01 SK= 0.59E-01 mag=      0.000
       N       E                     dE             d eps       ncg     rms          rms(c)
DAV:   1    -0.769045655934E+03   -0.49204E-03   -0.67473E-04  1168   0.142E-01    0.192E-02
DAV:   2    -0.769045697266E+03   -0.41332E-04   -0.42446E-04  1248   0.362E-02    0.164E-02
DAV:   3    -0.769045696265E+03    0.10005E-05   -0.42733E-06   816   0.405E-03    0.141E-02
DAV:   4    -0.769045695567E+03    0.69854E-06   -0.30844E-06   784   0.356E-03    0.117E-02
DAV:   5    -0.769045695590E+03   -0.22716E-07   -0.10188E-06   672   0.188E-03    0.113E-02
DAV:   6    -0.769045695609E+03   -0.19070E-07   -0.20952E-07   624   0.897E-04
 4994 T=     3. E= -.77226313E+03 F= -.77239039E+03 E0= -.77239039E+03  EK= 0.32778E-01 SP= 0.35E-01 SK= 0.60E-01 mag=      0.000
       N       E                     dE             d eps       ncg     rms          rms(c)
DAV:   1    -0.769045430347E+03    0.26524E-03   -0.12516E-03  1120   0.186E-01    0.222E-02
DAV:   2    -0.769045483767E+03   -0.53421E-04   -0.54966E-04  1192   0.416E-02    0.177E-02
DAV:   3    -0.769045482395E+03    0.13720E-05   -0.53644E-06   832   0.471E-03    0.147E-02
DAV:   4    -0.769045481345E+03    0.10499E-05   -0.39711E-06   792   0.412E-03    0.118E-02
DAV:   5    -0.769045481410E+03   -0.64108E-07   -0.13669E-06   704   0.219E-03    0.113E-02
DAV:   6    -0.769045481421E+03   -0.11350E-07   -0.23863E-07   640   0.102E-03
 4995 T=     3. E= -.77226886E+03 F= -.77239013E+03 E0= -.77239013E+03  EK= 0.31617E-01 SP= 0.29E-01 SK= 0.61E-01 mag=      0.000
       N       E                     dE             d eps       ncg     rms          rms(c)
DAV:   1    -0.769045272547E+03    0.20886E-03   -0.13223E-03  1080   0.163E-01    0.229E-02
DAV:   2    -0.769045317282E+03   -0.44735E-04   -0.47358E-04  1216   0.372E-02    0.175E-02
DAV:   3    -0.769045315746E+03    0.15353E-05   -0.60640E-06   904   0.442E-03    0.145E-02
DAV:   4    -0.769045314945E+03    0.80156E-06   -0.24209E-06   800   0.319E-03    0.118E-02
DAV:   5    -0.769045315144E+03   -0.19950E-06   -0.11918E-06   760   0.189E-03    0.112E-02
DAV:   6    -0.769045315194E+03   -0.49993E-07   -0.22680E-07   600   0.873E-04
 4996 T=     3. E= -.77227459E+03 F= -.77238991E+03 E0= -.77238991E+03  EK= 0.30532E-01 SP= 0.23E-01 SK= 0.62E-01 mag=      0.000
       N       E                     dE             d eps       ncg     rms          rms(c)
DAV:   1    -0.769046102744E+03   -0.78760E-03   -0.69567E-04  1160   0.176E-01    0.191E-02
DAV:   2    -0.769046134030E+03   -0.31286E-04   -0.33072E-04  1248   0.304E-02    0.160E-02
DAV:   3    -0.769046133088E+03    0.94219E-06   -0.43374E-06   896   0.351E-03    0.138E-02
DAV:   4    -0.769046132518E+03    0.57000E-06   -0.14151E-06   712   0.233E-03    0.118E-02
DAV:   5    -0.769046132523E+03   -0.51805E-08   -0.97024E-07   728   0.166E-03    0.112E-02
DAV:   6    -0.769046132560E+03   -0.37071E-07   -0.22240E-07   592   0.783E-04
 4997 T=     3. E= -.77228043E+03 F= -.77239067E+03 E0= -.77239067E+03  EK= 0.30356E-01 SP= 0.17E-01 SK= 0.62E-01 mag=      0.000
       N       E                     dE             d eps       ncg     rms          rms(c)
DAV:   1    -0.769047693208E+03   -0.15607E-02   -0.40694E-04  1192   0.264E-01    0.165E-02
DAV:   2    -0.769047720691E+03   -0.27483E-04   -0.28334E-04  1216   0.275E-02    0.149E-02
DAV:   3    -0.769047720062E+03    0.62904E-06   -0.31325E-06   856   0.327E-03    0.132E-02
DAV:   4    -0.769047719440E+03    0.62196E-06   -0.19772E-06   816   0.262E-03    0.116E-02
DAV:   5    -0.769047719486E+03   -0.46181E-07   -0.83697E-07   712   0.153E-03    0.113E-02
DAV:   6    -0.769047719524E+03   -0.37740E-07   -0.18866E-07   648   0.725E-04
 4998 T=     3. E= -.77228635E+03 F= -.77239221E+03 E0= -.77239221E+03  EK= 0.30884E-01 SP= 0.12E-01 SK= 0.63E-01 mag=      0.000
       N       E                     dE             d eps       ncg     rms          rms(c)
DAV:   1    -0.769048874531E+03   -0.11550E-02   -0.52538E-04  1168   0.278E-01    0.182E-02
DAV:   2    -0.769048911647E+03   -0.37117E-04   -0.37976E-04  1240   0.344E-02    0.155E-02
DAV:   3    -0.769048910820E+03    0.82736E-06   -0.33529E-06   848   0.383E-03    0.135E-02
DAV:   4    -0.769048910096E+03    0.72393E-06   -0.28472E-06   800   0.338E-03    0.116E-02
DAV:   5    -0.769048910153E+03   -0.56454E-07   -0.96089E-07   648   0.176E-03    0.113E-02
DAV:   6    -0.769048910150E+03    0.31287E-08   -0.18407E-07   592   0.782E-04
 4999 T=     3. E= -.77229226E+03 F= -.77239335E+03 E0= -.77239335E+03  EK= 0.31042E-01 SP= 0.59E-02 SK= 0.64E-01 mag=      0.000
       N       E                     dE             d eps       ncg     rms          rms(c)
DAV:   1    -0.769048943348E+03   -0.33195E-04   -0.11529E-03  1096   0.197E-01    0.208E-02
DAV:   2    -0.769048991369E+03   -0.48021E-04   -0.49668E-04  1168   0.400E-02    0.166E-02
DAV:   3    -0.769048990374E+03    0.99446E-06   -0.48571E-06   920   0.467E-03    0.141E-02
DAV:   4    -0.769048989761E+03    0.61292E-06   -0.39144E-06   760   0.417E-03    0.116E-02
DAV:   5    -0.769048989876E+03   -0.11415E-06   -0.13104E-06   648   0.215E-03    0.113E-02
DAV:   6    -0.769048989892E+03   -0.16589E-07   -0.23731E-07   608   0.947E-04
 5000 T=     3. E= -.77229809E+03 F= -.77239339E+03 E0= -.77239339E+03  EK= 0.30187E-01 SP= 0.00E+00 SK= 0.65E-01 mag=      0.000
